DF-ISE text

Info {
  version = 1.0
  type    = dataset
  dimension   = 2
  nb_vertices = 1377
  nb_edges    = 3808
  nb_faces    = 0
  nb_elements = 2448
  nb_regions  = 3
  datasets    = [ "ElectrostaticPotential" "eDensity" "hDensity" "LatticeTemperature" "EffectiveIntrinsicDensity" "IntrinsicDensity" "eEquilibriumDensity" "hEquilibriumDensity" "BandGap" "EffectiveBandGap" "BandgapNarrowing" "ValenceBandEnergy" "ConductionBandEnergy" "hEffectiveStateDensity" "eEffectiveStateDensity" "eQuasiFermiEnergy" "hQuasiFermiEnergy" "ElectronAffinity" "TotalCurrentDensity" "eCurrentDensity" "hCurrentDensity" "eMobility" "hMobility" "eVelocity" "hVelocity" "ElectricField" "eQuasiFermiPotential" "hQuasiFermiPotential" "SpaceCharge" "eGradQuasiFermi" "hGradQuasiFermi" "eEparallel" "hEparallel" "eEnormal" "hEnormal" "srhRecombination" "Band2BandGeneration" "AugerRecombination" "RadiativeRecombination" "ImpactIonization" "eImpactIonization" "hImpactIonization" "eAlphaAvalanche" "hAlphaAvalanche" "TotalRecombination" "eLifetime" "hLifetime" "SurfaceRecombination" "DopingConcentration" "DonorConcentration" "AcceptorConcentration" "DonorPlusConcentration" "AccepMinusConcentration" "QuasiFermiPotential" ]
  functions   = [ ElectrostaticPotential eDensity hDensity LatticeTemperature EffectiveIntrinsicDensity IntrinsicDensity eEquilibriumDensity hEquilibriumDensity BandGap EffectiveBandGap BandgapNarrowing ValenceBandEnergy ConductionBandEnergy hEffectiveStateDensity eEffectiveStateDensity eQuasiFermiEnergy hQuasiFermiEnergy ElectronAffinity TotalCurrentDensity eCurrentDensity hCurrentDensity eMobility hMobility eVelocity hVelocity ElectricField eQuasiFermiPotential hQuasiFermiPotential SpaceCharge eGradQuasiFermi hGradQuasiFermi eEparallel hEparallel eEnormal hEnormal srhRecombination Band2BandGeneration AugerRecombination RadiativeRecombination ImpactIonization eImpactIonization hImpactIonization eAlphaAvalanche hAlphaAvalanche TotalRecombination eLifetime hLifetime SurfaceRecombination DopingConcentration DonorConcentration AcceptorConcentration DonorPlusConcentration AccepMinusConcentration QuasiFermiPotential ]
}

Data {

  Dataset ("ElectrostaticPotential") {
    function  = ElectrostaticPotential
    type      = scalar
    dimension = 1
    location  = vertex
    validity  = [ "N-" ]
    Values (1377) {
 -4.083311368190596e-01 -4.044268194451109e-01 -4.083311368190596e-01 -4.053452954941729e-01 -4.053452954941729e-01 -4.083311368190596e-01 -4.044268194451109e-01 -4.053452954941729e-01 -3.954688268813858e-01 -3.954688268813858e-01
 -3.787007151454717e-01 -3.787007151454717e-01 -3.954688268813858e-01 -3.787007151454717e-01 -4.083311368190596e-01 -4.044268194451109e-01 -4.053452954941729e-01 -4.083311368190596e-01 -4.044268194451109e-01 -4.053452954941729e-01
 -3.954688268813858e-01 -3.787007151454717e-01 -3.954688268813858e-01 -3.787007151454717e-01 -3.550377577722854e-01 -3.550377577722854e-01 -3.550377577722854e-01 -3.244691448621264e-01 -3.244691448621264e-01 -3.244691448621264e-01
 -3.065841010790003e-01 -3.065841010790003e-01 -2.865454674582608e-01 -2.865454674582608e-01 -3.065841010790003e-01 -2.865454674582608e-01 -1.702979727760655e-01 -1.702979727760654e-01 3.991649443755929e+00 3.991649443755929e+00
 -1.702979727760654e-01 3.991649443755929e+00 -3.550377577722854e-01 -3.550377577722854e-01 -3.244691448621264e-01 -3.244691448621264e-01 -3.065841010790003e-01 -2.865454674582608e-01 -3.065841010790003e-01 -2.865454674582608e-01
 -1.702979727760655e-01 3.991649443755929e+00 -1.702979727760654e-01 3.991649443755929e+00 1.035449747599404e+01 1.035449747599404e+01 1.777697384810722e+01 1.777697384810722e+01 1.035449747599404e+01 1.777697384810722e+01
 2.567655049015177e+01 2.567655049015177e+01 2.567655049015177e+01 2.969961369792557e+01 2.969961369792557e+01 3.375216389761553e+01 3.375216389761553e+01 2.969961369792557e+01 3.375216389761554e+01 3.782128203134801e+01
 3.782128203134801e+01 3.782128203134801e+01 3.985886435701851e+01 3.985886435701851e+01 4.189769598956306e+01 4.189769598956306e+01 3.985886435701851e+01 4.189769598956307e+01 4.393716147141615e+01 4.393716147141615e+01
 4.597676805853622e+01 4.597676805853622e+01 4.393716147141615e+01 4.597676805853622e+01 4.801612255102107e+01 4.801612255102107e+01 5.005491221413808e+01 5.005491221413808e+01 4.801612255102107e+01 5.005491221413808e+01
 5.413005329255247e+01 5.413005329255246e+01 5.413005329255247e+01 5.820054268208504e+01 5.820054268208504e+01 5.820054268208504e+01 6.632497601821002e+01 6.632497601821002e+01 6.632497601821002e+01 1.035449747599404e+01
 1.777697384810722e+01 1.035449747599404e+01 1.777697384810722e+01 2.567655049015176e+01 2.567655049015176e+01 2.969961369792557e+01 3.375216389761553e+01 2.969961369792557e+01 3.375216389761553e+01 3.782128203134801e+01
 3.782128203134801e+01 3.985886435701851e+01 4.189769598956306e+01 3.985886435701851e+01 4.189769598956306e+01 4.393716147141615e+01 4.597676805853622e+01 4.393716147141615e+01 4.597676805853622e+01 4.801612255102107e+01
 5.005491221413808e+01 4.801612255102107e+01 5.005491221413808e+01 5.413005329255247e+01 5.413005329255247e+01 5.820054268208504e+01 5.820054268208504e+01 6.632497601821002e+01 6.632497601821002e+01 8.249757024786290e+01
 8.249757024786290e+01 9.856213591878635e+01 9.856213591878635e+01 8.249757024786290e+01 9.856213591878635e+01 1.145180155494909e+02 1.145180155494909e+02 1.303651534614425e+02 1.303651534614425e+02 1.145180155494909e+02
 1.303651534614425e+02 8.249757024786290e+01 8.249757024786290e+01 9.856213591878635e+01 9.856213591878635e+01 1.145180155494909e+02 1.303651534614425e+02 1.145180155494909e+02 1.303651534614425e+02 1.461035458066667e+02
 1.461035458066667e+02 1.617331923687313e+02 1.617331923687313e+02 1.461035458066667e+02 1.617331923687313e+02 1.772540931384937e+02 1.772540931384937e+02 1.926662481164715e+02 1.926662481164715e+02 1.772540931384937e+02
 1.926662481164715e+02 1.461035458066667e+02 1.617331923687313e+02 1.461035458066667e+02 1.617331923687313e+02 1.772540931384937e+02 1.926662481164715e+02 1.772540931384937e+02 1.926662481164715e+02 2.079696573035613e+02
 2.079696573035613e+02 2.231643207006840e+02 2.231643207006840e+02 2.079696573035613e+02 2.231643207006840e+02 2.382502383087745e+02 2.382502383087745e+02 2.532274101287806e+02 2.532274101287806e+02 2.382502383087745e+02
 2.532274101287806e+02 2.079696573035613e+02 2.231643207006840e+02 2.079696573035613e+02 2.231643207006840e+02 2.382502383087745e+02 2.532274101287806e+02 2.382502383087745e+02 2.532274101287806e+02 2.680958361616644e+02
 2.680958361616644e+02 2.828555164084019e+02 2.828555164084019e+02 2.680958361616644e+02 2.828555164084019e+02 2.975064508699837e+02 2.975064508699837e+02 3.120486395474148e+02 3.120486395474148e+02 2.975064508699837e+02
 3.120486395474148e+02 2.680958361616644e+02 2.828555164084019e+02 2.680958361616644e+02 2.828555164084019e+02 2.975064508699837e+02 3.120486395474148e+02 2.975064508699837e+02 3.120486395474148e+02 3.264820824417159e+02
 3.264820824417159e+02 3.408067795539228e+02 3.408067795539228e+02 3.264820824417159e+02 3.408067795539228e+02 3.550227308850869e+02 3.550227308850869e+02 3.691299364362762e+02 3.691299364362762e+02 3.550227308850869e+02
 3.691299364362762e+02 3.264820824417159e+02 3.408067795539228e+02 3.264820824417160e+02 3.408067795539228e+02 3.550227308850869e+02 3.691299364362762e+02 3.550227308850869e+02 3.691299364362762e+02 3.831283962085750e+02
 3.831283962085750e+02 3.970181102030845e+02 3.970181102030845e+02 3.831283962085750e+02 3.970181102030845e+02 4.107990784209233e+02 4.107990784209233e+02 4.244713008632278e+02 4.244713008632278e+02 4.107990784209233e+02
 4.244713008632278e+02 3.831283962085750e+02 3.970181102030845e+02 3.831283962085750e+02 3.970181102030845e+02 4.107990784209233e+02 4.244713008632278e+02 4.107990784209233e+02 4.244713008632278e+02 4.380347775311523e+02
 4.380347775311523e+02 4.514895084258701e+02 4.514895084258701e+02 4.380347775311523e+02 4.514895084258701e+02 4.648354935485733e+02 4.648354935485733e+02 4.780727329004734e+02 4.780727329004734e+02 4.648354935485733e+02
 4.780727329004734e+02 4.380347775311523e+02 4.514895084258701e+02 4.380347775311523e+02 4.514895084258701e+02 4.648354935485733e+02 4.780727329004734e+02 4.648354935485733e+02 4.780727329004734e+02 4.912012264828023e+02
 4.912012264828023e+02 5.042209742968120e+02 5.042209742968120e+02 4.912012264828023e+02 5.042209742968120e+02 5.171319763437759e+02 5.171319763437759e+02 5.299342326249886e+02 5.299342326249886e+02 5.171319763437759e+02
 5.299342326249886e+02 4.912012264828023e+02 5.042209742968120e+02 4.912012264828023e+02 5.042209742968120e+02 5.171319763437759e+02 5.299342326249886e+02 5.171319763437759e+02 5.299342326249886e+02 5.426277431417670e+02
 5.426277431417670e+02 5.552125078954508e+02 5.552125078954508e+02 5.426277431417670e+02 5.552125078954508e+02 5.676885268874026e+02 5.676885268874026e+02 5.800558001190092e+02 5.800558001190092e+02 5.676885268874026e+02
 5.800558001190092e+02 5.426277431417670e+02 5.552125078954508e+02 5.426277431417670e+02 5.552125078954508e+02 5.676885268874026e+02 5.800558001190092e+02 5.676885268874026e+02 5.800558001190092e+02 5.923143275916819e+02
 5.923143275916819e+02 6.044641093068572e+02 6.044641093068572e+02 5.923143275916819e+02 6.044641093068572e+02 6.165051452659970e+02 6.165051452659970e+02 6.284374354705903e+02 6.284374354705903e+02 6.165051452659970e+02
 6.284374354705903e+02 5.923143275916819e+02 6.044641093068572e+02 5.923143275916819e+02 6.044641093068572e+02 6.165051452659970e+02 6.284374354705903e+02 6.165051452659970e+02 6.284374354705903e+02 6.402609799221534e+02
 6.402609799221534e+02 6.519757786222302e+02 6.519757786222302e+02 6.402609799221534e+02 6.519757786222302e+02 6.635818315723936e+02 6.635818315723936e+02 6.750791387742464e+02 6.750791387742464e+02 6.635818315723936e+02
 6.750791387742464e+02 6.402609799221534e+02 6.519757786222302e+02 6.402609799221534e+02 6.519757786222302e+02 6.635818315723936e+02 6.750791387742464e+02 6.635818315723936e+02 6.750791387742464e+02 6.864677002294218e+02
 6.864677002294218e+02 6.977475159395840e+02 6.977475159395840e+02 6.864677002294218e+02 6.977475159395840e+02 7.089185859064299e+02 7.089185859064299e+02 7.199809101316895e+02 7.199809101316895e+02 7.089185859064299e+02
 7.199809101316895e+02 6.864677002294218e+02 6.977475159395840e+02 6.864677002294218e+02 6.977475159395840e+02 7.089185859064299e+02 7.199809101316895e+02 7.089185859064299e+02 7.199809101316895e+02 7.309344886171270e+02
 7.309344886171270e+02 7.417793213645418e+02 7.417793213645418e+02 7.309344886171270e+02 7.417793213645418e+02 7.525154083757699e+02 7.525154083757699e+02 7.631427496526841e+02 7.631427496526841e+02 7.525154083757699e+02
 7.631427496526841e+02 7.309344886171270e+02 7.417793213645418e+02 7.309344886171270e+02 7.417793213645418e+02 7.525154083757699e+02 7.631427496526841e+02 7.525154083757699e+02 7.631427496526841e+02 -4.083311368190596e-01
 -4.044268194451109e-01 -4.053452954941729e-01 -4.083311368190596e-01 -4.044268194451109e-01 -4.053452954941729e-01 -3.954688268813858e-01 -3.787007151454717e-01 -3.954688268813858e-01 -3.787007151454717e-01 -3.550377577722854e-01
 -3.550377577722854e-01 -3.244691448621264e-01 -3.244691448621264e-01 -3.065841010790003e-01 -2.865454674582608e-01 -3.065841010790003e-01 -2.865454674582608e-01 -1.702979727760655e-01 3.991649443755929e+00 -1.702979727760655e-01
 3.991649443755929e+00 1.035449747599404e+01 1.777697384810721e+01 1.035449747599404e+01 1.777697384810721e+01 2.567655049015176e+01 2.567655049015176e+01 2.969961369792557e+01 3.375216389761553e+01 2.969961369792557e+01
 3.375216389761553e+01 3.782128203134801e+01 3.782128203134801e+01 3.985886435701851e+01 4.189769598956306e+01 3.985886435701851e+01 4.189769598956306e+01 4.393716147141615e+01 4.597676805853622e+01 4.393716147141615e+01
 4.597676805853622e+01 4.801612255102106e+01 5.005491221413808e+01 4.801612255102106e+01 5.005491221413808e+01 5.413005329255246e+01 5.413005329255246e+01 5.820054268208504e+01 5.820054268208504e+01 6.632497601821002e+01
 6.632497601821002e+01 8.249757024786290e+01 8.249757024786290e+01 9.856213591878635e+01 9.856213591878635e+01 1.145180155494909e+02 1.303651534614425e+02 1.145180155494909e+02 1.303651534614425e+02 1.461035458066667e+02
 1.617331923687313e+02 1.461035458066667e+02 1.617331923687313e+02 1.772540931384937e+02 1.926662481164715e+02 1.772540931384937e+02 1.926662481164715e+02 2.079696573035613e+02 2.231643207006840e+02 2.079696573035613e+02
 2.231643207006840e+02 2.382502383087745e+02 2.532274101287806e+02 2.382502383087745e+02 2.532274101287806e+02 2.680958361616644e+02 2.828555164084019e+02 2.680958361616644e+02 2.828555164084019e+02 2.975064508699837e+02
 3.120486395474148e+02 2.975064508699837e+02 3.120486395474148e+02 3.264820824417160e+02 3.408067795539228e+02 3.264820824417160e+02 3.408067795539228e+02 3.550227308850869e+02 3.691299364362762e+02 3.550227308850869e+02
 3.691299364362762e+02 3.831283962085750e+02 3.970181102030845e+02 3.831283962085750e+02 3.970181102030845e+02 4.107990784209233e+02 4.244713008632278e+02 4.107990784209233e+02 4.244713008632278e+02 4.380347775311523e+02
 4.514895084258701e+02 4.380347775311523e+02 4.514895084258701e+02 4.648354935485733e+02 4.780727329004734e+02 4.648354935485733e+02 4.780727329004734e+02 4.912012264828023e+02 5.042209742968120e+02 4.912012264828023e+02
 5.042209742968120e+02 5.171319763437759e+02 5.299342326249886e+02 5.171319763437759e+02 5.299342326249886e+02 5.426277431417670e+02 5.552125078954508e+02 5.426277431417670e+02 5.552125078954508e+02 5.676885268874026e+02
 5.800558001190092e+02 5.676885268874026e+02 5.800558001190092e+02 5.923143275916819e+02 6.044641093068572e+02 5.923143275916819e+02 6.044641093068572e+02 6.165051452659970e+02 6.284374354705903e+02 6.165051452659970e+02
 6.284374354705903e+02 6.402609799221534e+02 6.519757786222301e+02 6.402609799221534e+02 6.519757786222301e+02 6.635818315723936e+02 6.750791387742464e+02 6.635818315723936e+02 6.750791387742464e+02 6.864677002294218e+02
 6.977475159395840e+02 6.864677002294218e+02 6.977475159395840e+02 7.089185859064299e+02 7.199809101316895e+02 7.089185859064299e+02 7.199809101316895e+02 7.309344886171270e+02 7.417793213645418e+02 7.309344886171270e+02
 7.417793213645418e+02 7.525154083757699e+02 7.631427496526841e+02 7.525154083757699e+02 7.631427496526841e+02 -4.083311368190596e-01 -4.044268194451109e-01 -4.053452954941729e-01 -4.083311368190596e-01 -4.053452954941729e-01
 -3.954688268813858e-01 -3.787007151454717e-01 -3.954688268813858e-01 -3.787007151454717e-01 -3.550377577722854e-01 -3.550377577722854e-01 -3.244691448621264e-01 -3.244691448621264e-01 -3.065841010790003e-01 -2.865454674582608e-01
 -3.065841010790003e-01 -2.865454674582608e-01 -1.702979727760655e-01 3.991649443755929e+00 -1.702979727760655e-01 3.991649443755928e+00 1.035449747599404e+01 1.777697384810721e+01 1.035449747599404e+01 1.777697384810722e+01
 2.567655049015176e+01 2.567655049015176e+01 2.969961369792557e+01 3.375216389761553e+01 2.969961369792557e+01 3.375216389761553e+01 3.782128203134801e+01 3.985886435701851e+01 4.189769598956306e+01 4.393716147141615e+01
 4.597676805853622e+01 4.801612255102106e+01 5.005491221413808e+01 5.413005329255246e+01 5.820054268208504e+01 6.632497601821002e+01 3.782128203134801e+01 3.985886435701851e+01 4.189769598956306e+01 4.393716147141615e+01
 4.597676805853622e+01 4.801612255102106e+01 5.005491221413808e+01 5.413005329255246e+01 5.820054268208504e+01 6.632497601821002e+01 8.249757024786290e+01 9.856213591878635e+01 8.249757024786290e+01 9.856213591878635e+01
 1.145180155494909e+02 1.303651534614425e+02 1.145180155494909e+02 1.303651534614425e+02 1.461035458066667e+02 1.617331923687313e+02 1.461035458066667e+02 1.617331923687313e+02 1.772540931384937e+02 1.926662481164715e+02
 1.772540931384937e+02 1.926662481164715e+02 2.079696573035613e+02 2.231643207006840e+02 2.079696573035613e+02 2.231643207006840e+02 2.382502383087745e+02 2.532274101287806e+02 2.382502383087745e+02 2.532274101287806e+02
 2.680958361616644e+02 2.828555164084019e+02 2.680958361616644e+02 2.828555164084019e+02 2.975064508699837e+02 3.120486395474148e+02 2.975064508699837e+02 3.120486395474148e+02 3.264820824417160e+02 3.408067795539228e+02
 3.264820824417160e+02 3.408067795539228e+02 3.550227308850869e+02 3.691299364362762e+02 3.550227308850869e+02 3.691299364362762e+02 3.831283962085750e+02 3.970181102030845e+02 3.831283962085750e+02 3.970181102030845e+02
 4.107990784209233e+02 4.244713008632278e+02 4.107990784209233e+02 4.244713008632278e+02 4.380347775311523e+02 4.514895084258701e+02 4.380347775311523e+02 4.514895084258701e+02 4.648354935485733e+02 4.780727329004734e+02
 4.648354935485733e+02 4.780727329004734e+02 4.912012264828023e+02 5.042209742968120e+02 4.912012264828023e+02 5.042209742968120e+02 5.171319763437759e+02 5.299342326249886e+02 5.171319763437759e+02 5.299342326249886e+02
 5.426277431417670e+02 5.552125078954508e+02 5.426277431417670e+02 5.552125078954508e+02 5.676885268874026e+02 5.800558001190092e+02 5.676885268874026e+02 5.800558001190092e+02 5.923143275916819e+02 6.044641093068572e+02
 5.923143275916819e+02 6.044641093068572e+02 6.165051452659970e+02 6.284374354705903e+02 6.165051452659970e+02 6.284374354705903e+02 6.402609799221534e+02 6.519757786222301e+02 6.402609799221534e+02 6.519757786222301e+02
 6.635818315723936e+02 6.750791387742464e+02 6.635818315723936e+02 6.750791387742464e+02 6.864677002294218e+02 6.977475159395840e+02 6.864677002294218e+02 6.977475159395840e+02 7.089185859064299e+02 7.199809101316895e+02
 7.089185859064299e+02 7.199809101316895e+02 7.309344886171270e+02 7.417793213645418e+02 7.309344886171270e+02 7.417793213645418e+02 7.525154083757699e+02 7.631427496526841e+02 7.525154083757699e+02 7.631427496526841e+02
 7.736613451971963e+02 7.736613451971963e+02 7.840711950112579e+02 7.840711950112579e+02 7.736613451971963e+02 7.840711950112579e+02 7.943722990968620e+02 7.943722990968620e+02 8.045646574560428e+02 8.045646574560428e+02
 7.943722990968620e+02 8.045646574560428e+02 7.736613451971963e+02 7.840711950112579e+02 7.736613451971963e+02 7.840711950112579e+02 7.943722990968620e+02 8.045646574560428e+02 7.943722990968620e+02 8.045646574560428e+02
 8.146482700908792e+02 8.146482700908792e+02 8.246231370034951e+02 8.246231370034951e+02 8.146482700908792e+02 8.246231370034951e+02 8.344892581960606e+02 8.344892581960606e+02 8.442466336707943e+02 8.442466336707943e+02
 8.344892581960606e+02 8.442466336707943e+02 8.146482700908792e+02 8.246231370034951e+02 8.146482700908792e+02 8.246231370034951e+02 8.344892581960606e+02 8.442466336707943e+02 8.344892581960606e+02 8.442466336707943e+02
 8.538952634299645e+02 8.538952634299645e+02 8.634351474758910e+02 8.634351474758910e+02 8.538952634299645e+02 8.634351474758910e+02 8.728662858109467e+02 8.728662858109467e+02 8.821886784375602e+02 8.821886784375602e+02
 8.728662858109467e+02 8.821886784375602e+02 8.538952634299645e+02 8.634351474758910e+02 8.538952634299645e+02 8.634351474758910e+02 8.728662858109467e+02 8.821886784375602e+02 8.728662858109467e+02 8.821886784375602e+02
 8.914023253582161e+02 8.914023253582161e+02 9.005072265754590e+02 9.005072265754590e+02 8.914023253582161e+02 9.005072265754590e+02 9.095033820918942e+02 9.095033820918942e+02 9.183907919101910e+02 9.183907919101910e+02
 9.095033820918942e+02 9.183907919101910e+02 8.914023253582161e+02 9.005072265754590e+02 8.914023253582161e+02 9.005072265754590e+02 9.095033820918942e+02 9.183907919101910e+02 9.095033820918942e+02 9.183907919101910e+02
 9.271694560330842e+02 9.271694560330842e+02 9.358393744633763e+02 9.358393744633763e+02 9.271694560330842e+02 9.358393744633763e+02 9.444005472039416e+02 9.444005472039416e+02 9.528529742577276e+02 9.528529742577276e+02
 9.444005472039416e+02 9.528529742577276e+02 9.271694560330842e+02 9.358393744633763e+02 9.271694560330842e+02 9.358393744633763e+02 9.444005472039416e+02 9.528529742577276e+02 9.444005472039416e+02 9.528529742577276e+02
 9.611966556277579e+02 9.611966556277579e+02 9.694315913171363e+02 9.694315913171363e+02 9.611966556277579e+02 9.694315913171363e+02 9.775577813290482e+02 9.775577813290482e+02 9.855752256667661e+02 9.855752256667661e+02
 9.775577813290482e+02 9.855752256667661e+02 9.611966556277579e+02 9.694315913171363e+02 9.611966556277579e+02 9.694315913171363e+02 9.775577813290482e+02 9.855752256667661e+02 9.775577813290482e+02 9.855752256667661e+02
 9.934839243336512e+02 9.934839243336512e+02 1.001283877333158e+03 1.001283877333158e+03 9.934839243336512e+02 1.001283877333158e+03 1.008975084668839e+03 1.008975084668839e+03 1.016557546344347e+03 1.016557546344347e+03
 1.008975084668839e+03 1.016557546344347e+03 9.934839243336512e+02 1.001283877333158e+03 9.934839243336512e+02 1.001283877333158e+03 1.008975084668839e+03 1.016557546344347e+03 1.008975084668839e+03 1.016557546344347e+03
 1.024031262363440e+03 1.024031262363440e+03 1.031396232729988e+03 1.031396232729988e+03 1.024031262363440e+03 1.031396232729988e+03 1.038652457447976e+03 1.038652457447976e+03 1.045799936521508e+03 1.045799936521508e+03
 1.038652457447976e+03 1.045799936521508e+03 1.024031262363440e+03 1.031396232729988e+03 1.024031262363440e+03 1.031396232729988e+03 1.038652457447976e+03 1.045799936521508e+03 1.038652457447976e+03 1.045799936521508e+03
 7.736613451971963e+02 7.840711950112579e+02 7.736613451971963e+02 7.840711950112579e+02 7.943722990968620e+02 8.045646574560428e+02 7.943722990968620e+02 8.045646574560428e+02 8.146482700908792e+02 8.246231370034951e+02
 8.146482700908792e+02 8.246231370034951e+02 8.344892581960606e+02 8.442466336707943e+02 8.344892581960606e+02 8.442466336707943e+02 8.538952634299645e+02 8.634351474758910e+02 8.538952634299645e+02 8.634351474758910e+02
 8.728662858109467e+02 8.821886784375602e+02 8.728662858109467e+02 8.821886784375602e+02 8.914023253582161e+02 9.005072265754590e+02 8.914023253582161e+02 9.005072265754590e+02 9.095033820918942e+02 9.183907919101910e+02
 9.095033820918942e+02 9.183907919101910e+02 9.271694560330842e+02 9.358393744633763e+02 9.271694560330842e+02 9.358393744633763e+02 9.444005472039416e+02 9.528529742577276e+02 9.444005472039416e+02 9.528529742577276e+02
 9.611966556277579e+02 9.694315913171363e+02 9.611966556277579e+02 9.694315913171363e+02 9.775577813290482e+02 9.855752256667661e+02 9.775577813290482e+02 9.855752256667661e+02 9.934839243336512e+02 1.001283877333158e+03
 9.934839243336512e+02 1.001283877333158e+03 1.008975084668839e+03 1.016557546344347e+03 1.008975084668839e+03 1.016557546344347e+03 1.024031262363440e+03 1.031396232729988e+03 1.024031262363440e+03 1.031396232729988e+03
 1.038652457447976e+03 1.045799936521508e+03 1.038652457447976e+03 1.045799936521508e+03 7.736613451971963e+02 7.840711950112579e+02 7.736613451971963e+02 7.840711950112579e+02 7.943722990968620e+02 8.045646574560428e+02
 7.943722990968620e+02 8.045646574560428e+02 8.146482700908792e+02 8.246231370034951e+02 8.146482700908792e+02 8.246231370034951e+02 8.344892581960606e+02 8.442466336707943e+02 8.344892581960606e+02 8.442466336707943e+02
 8.538952634299645e+02 8.634351474758910e+02 8.538952634299645e+02 8.634351474758910e+02 8.728662858109467e+02 8.821886784375602e+02 8.728662858109467e+02 8.821886784375602e+02 8.914023253582161e+02 9.005072265754590e+02
 8.914023253582161e+02 9.005072265754590e+02 9.095033820918942e+02 9.183907919101910e+02 9.095033820918942e+02 9.183907919101910e+02 9.271694560330842e+02 9.358393744633763e+02 9.271694560330842e+02 9.358393744633763e+02
 9.444005472039416e+02 9.528529742577276e+02 9.444005472039416e+02 9.528529742577276e+02 9.611966556277579e+02 9.694315913171363e+02 9.611966556277579e+02 9.694315913171363e+02 9.775577813290482e+02 9.855752256667661e+02
 9.775577813290482e+02 9.855752256667661e+02 9.934839243336512e+02 1.001283877333158e+03 9.934839243336512e+02 1.001283877333158e+03 1.008975084668839e+03 1.016557546344347e+03 1.008975084668839e+03 1.016557546344347e+03
 1.024031262363440e+03 1.031396232729988e+03 1.024031262363440e+03 1.031396232729988e+03 1.038652457447976e+03 1.045799936521508e+03 1.038652457447976e+03 1.045799936521508e+03 1.052838669954816e+03 1.052838669954816e+03
 1.059768657752262e+03 1.059768657752262e+03 1.052838669954816e+03 1.059768657752262e+03 1.066589899918349e+03 1.066589899918349e+03 1.073302396457721e+03 1.073302396457721e+03 1.066589899918349e+03 1.073302396457721e+03
 1.052838669954816e+03 1.059768657752262e+03 1.052838669954816e+03 1.059768657752262e+03 1.066589899918349e+03 1.073302396457721e+03 1.066589899918349e+03 1.073302396457721e+03 1.079906147375179e+03 1.079906147375179e+03
 1.086401152675679e+03 1.086401152675679e+03 1.079906147375179e+03 1.086401152675679e+03 1.092787412364347e+03 1.092787412364347e+03 1.099064926446485e+03 1.099064926446485e+03 1.092787412364347e+03 1.099064926446485e+03
 1.079906147375179e+03 1.086401152675679e+03 1.079906147375179e+03 1.086401152675679e+03 1.092787412364347e+03 1.099064926446485e+03 1.092787412364347e+03 1.099064926446485e+03 1.105233694927582e+03 1.105233694927582e+03
 1.111293717813320e+03 1.111293717813320e+03 1.105233694927582e+03 1.111293717813320e+03 1.117244995109589e+03 1.117244995109589e+03 1.123087526822496e+03 1.123087526822496e+03 1.117244995109589e+03 1.123087526822496e+03
 1.105233694927582e+03 1.111293717813320e+03 1.105233694927582e+03 1.111293717813320e+03 1.117244995109589e+03 1.123087526822496e+03 1.117244995109589e+03 1.123087526822496e+03 1.128821312958379e+03 1.128821312958379e+03
 1.134446353523818e+03 1.134446353523818e+03 1.128821312958379e+03 1.134446353523818e+03 1.139962648525650e+03 1.139962648525650e+03 1.145370197970987e+03 1.145370197970987e+03 1.139962648525650e+03 1.145370197970987e+03
 1.128821312958379e+03 1.134446353523818e+03 1.128821312958379e+03 1.134446353523818e+03 1.139962648525650e+03 1.145370197970987e+03 1.139962648525650e+03 1.145370197970987e+03 1.052838669954816e+03 1.059768657752262e+03
 1.052838669954816e+03 1.059768657752262e+03 1.066589899918349e+03 1.073302396457721e+03 1.066589899918349e+03 1.073302396457721e+03 1.079906147375179e+03 1.086401152675679e+03 1.079906147375179e+03 1.086401152675679e+03
 1.092787412364347e+03 1.099064926446485e+03 1.092787412364347e+03 1.099064926446485e+03 1.105233694927582e+03 1.111293717813320e+03 1.105233694927582e+03 1.111293717813320e+03 1.117244995109589e+03 1.123087526822496e+03
 1.117244995109589e+03 1.123087526822496e+03 1.128821312958379e+03 1.134446353523818e+03 1.128821312958379e+03 1.134446353523818e+03 1.139962648525650e+03 1.145370197970987e+03 1.139962648525650e+03 1.145370197970987e+03
 1.052838669954816e+03 1.059768657752262e+03 1.052838669954816e+03 1.059768657752262e+03 1.066589899918349e+03 1.073302396457721e+03 1.066589899918349e+03 1.073302396457721e+03 1.079906147375179e+03 1.086401152675679e+03
 1.079906147375179e+03 1.086401152675679e+03 1.092787412364347e+03 1.099064926446485e+03 1.092787412364347e+03 1.099064926446485e+03 1.105233694927582e+03 1.111293717813320e+03 1.105233694927582e+03 1.111293717813320e+03
 1.117244995109589e+03 1.123087526822496e+03 1.117244995109589e+03 1.123087526822496e+03 1.128821312958379e+03 1.134446353523818e+03 1.128821312958379e+03 1.134446353523818e+03 1.139962648525650e+03 1.145370197970987e+03
 1.139962648525650e+03 1.145370197970987e+03 1.150669001867229e+03 1.150669001867229e+03 1.155859060222084e+03 1.155859060222084e+03 1.150669001867229e+03 1.155859060222084e+03 1.160940373043587e+03 1.160940373043587e+03
 1.165912940340121e+03 1.165912940340121e+03 1.160940373043587e+03 1.165912940340121e+03 1.150669001867229e+03 1.155859060222084e+03 1.150669001867229e+03 1.155859060222084e+03 1.160940373043587e+03 1.165912940340121e+03
 1.160940373043587e+03 1.165912940340121e+03 1.170776762120442e+03 1.170776762120442e+03 1.175531838393703e+03 1.175531838393703e+03 1.170776762120442e+03 1.175531838393703e+03 1.180178169169480e+03 1.180178169169480e+03
 1.184715754457793e+03 1.184715754457793e+03 1.180178169169480e+03 1.184715754457793e+03 1.170776762120442e+03 1.175531838393703e+03 1.170776762120442e+03 1.175531838393703e+03 1.180178169169480e+03 1.184715754457793e+03
 1.180178169169480e+03 1.184715754457793e+03 1.150669001867229e+03 1.155859060222084e+03 1.150669001867229e+03 1.155859060222084e+03 1.160940373043587e+03 1.165912940340121e+03 1.160940373043587e+03 1.165912940340121e+03
 1.170776762120442e+03 1.175531838393703e+03 1.170776762120442e+03 1.175531838393703e+03 1.180178169169480e+03 1.184715754457793e+03 1.180178169169480e+03 1.184715754457793e+03 1.150669001867229e+03 1.155859060222084e+03
 1.150669001867229e+03 1.155859060222084e+03 1.160940373043587e+03 1.165912940340121e+03 1.160940373043587e+03 1.165912940340121e+03 1.170776762120442e+03 1.175531838393703e+03 1.170776762120442e+03 1.175531838393703e+03
 1.180178169169480e+03 1.184715754457793e+03 1.180178169169480e+03 1.184715754457793e+03 1.189144594249720e+03 1.189144594249720e+03 1.189144594249720e+03 1.193464674912422e+03 1.193464674912422e+03 1.193464674912422e+03
 1.195582433886516e+03 1.195582433886516e+03 1.195582433886516e+03 1.196626486786812e+03 1.196626486786812e+03 1.197653750929655e+03 1.197653750929655e+03 1.196626486786812e+03 1.197653750929655e+03 1.198643602463521e+03
 1.198643602463521e+03 1.199537836270533e+03 1.199537836270533e+03 1.198643602463521e+03 1.199537836270533e+03 1.200181288829420e+03 1.200181288829420e+03 1.200277000075897e+03 1.200277000075897e+03 1.200181288829420e+03
 1.200277000075897e+03 1.189144594249720e+03 1.189144594249720e+03 1.193464674912422e+03 1.193464674912422e+03 1.195582433886516e+03 1.195582433886516e+03 1.196626486786812e+03 1.197653750929655e+03 1.196626486786812e+03