DF-ISE text

Info {
  version = 1.0
  type    = dataset
  dimension   = 2
  nb_vertices = 2543
  nb_edges    = 7430
  nb_faces    = 0
  nb_elements = 4920
  nb_regions  = 4
  datasets    = [ "ElectrostaticPotential" "eDensity" "hDensity" "LatticeTemperature" "EffectiveIntrinsicDensity" "IntrinsicDensity" "eEquilibriumDensity" "hEquilibriumDensity" "BandGap" "EffectiveBandGap" "BandgapNarrowing" "ValenceBandEnergy" "ConductionBandEnergy" "hEffectiveStateDensity" "eEffectiveStateDensity" "eQuasiFermiEnergy" "hQuasiFermiEnergy" "ElectronAffinity" "TotalCurrentDensity" "eCurrentDensity" "hCurrentDensity" "eMobility" "hMobility" "eVelocity" "hVelocity" "ElectricField" "eQuasiFermiPotential" "hQuasiFermiPotential" "SpaceCharge" "eGradQuasiFermi" "hGradQuasiFermi" "eEparallel" "hEparallel" "eEnormal" "hEnormal" "srhRecombination" "Band2BandGeneration" "AugerRecombination" "RadiativeRecombination" "ImpactIonization" "eImpactIonization" "hImpactIonization" "eAlphaAvalanche" "hAlphaAvalanche" "TotalRecombination" "eLifetime" "hLifetime" "SurfaceRecombination" "DopingConcentration" "DonorConcentration" "AcceptorConcentration" "DonorPlusConcentration" "AccepMinusConcentration" "QuasiFermiPotential" ]
  functions   = [ ElectrostaticPotential eDensity hDensity LatticeTemperature EffectiveIntrinsicDensity IntrinsicDensity eEquilibriumDensity hEquilibriumDensity BandGap EffectiveBandGap BandgapNarrowing ValenceBandEnergy ConductionBandEnergy hEffectiveStateDensity eEffectiveStateDensity eQuasiFermiEnergy hQuasiFermiEnergy ElectronAffinity TotalCurrentDensity eCurrentDensity hCurrentDensity eMobility hMobility eVelocity hVelocity ElectricField eQuasiFermiPotential hQuasiFermiPotential SpaceCharge eGradQuasiFermi hGradQuasiFermi eEparallel hEparallel eEnormal hEnormal srhRecombination Band2BandGeneration AugerRecombination RadiativeRecombination ImpactIonization eImpactIonization hImpactIonization eAlphaAvalanche hAlphaAvalanche TotalRecombination eLifetime hLifetime SurfaceRecombination DopingConcentration DonorConcentration AcceptorConcentration DonorPlusConcentration AccepMinusConcentration QuasiFermiPotential ]
}

Data {

  Dataset ("ElectrostaticPotential") {
    function  = ElectrostaticPotential
    type      = scalar
    dimension = 1
    location  = vertex
    validity  = [ "N-" ]
    Values (2543) {
 2.860105314912669e-01 2.837093865207007e-01 2.860130103275816e-01 2.930157972556158e-01 2.930216247315574e-01 2.860008902901603e-01 2.837093865207007e-01 2.929945473468536e-01 3.045462276254653e-01 3.045583908259564e-01
 3.200328652230575e-01 3.200601226452643e-01 3.045046265366207e-01 3.199442974224596e-01 2.859720011661395e-01 2.837093865207007e-01 2.929412212517271e-01 2.858225385605579e-01 2.834875198683651e-01 2.928041196444473e-01
 3.044152446255377e-01 3.197737647230052e-01 3.042455272493289e-01 3.194968884384380e-01 3.375954351536287e-01 3.376581364728807e-01 3.529300514290272e-01 3.530462436279979e-01 3.373992238969083e-01 3.525757114923186e-01
 3.623755425581094e-01 3.625280506304501e-01 3.619171825965932e-01 3.650368735055678e-01 3.651964118632385e-01 3.667457399408867e-01 3.669067508423184e-01 3.645595057719041e-01 3.662655404822432e-01 3.370484524175248e-01
 3.519720238482423e-01 3.365278852135927e-01 3.511237872367853e-01 3.611562355011253e-01 3.601162980863183e-01 3.637730274954654e-01 3.654787365995549e-01 3.627065186041233e-01 3.644175590458303e-01 2.856836479419074e-01
 2.833446551847726e-01 2.838022371356439e-01 2.832186515584971e-01 2.855499369682269e-01 2.926526649981170e-01 2.884519109957791e-01 2.924885631285720e-01 3.040392146016298e-01 2.976249943762481e-01 3.037985935789478e-01
 3.191466900788060e-01 3.108981483859479e-01 3.187262759671372e-01 2.837297162261750e-01 2.831478246989399e-01 2.834024436734098e-01 2.832619647386405e-01 2.838242387194819e-01 2.854723323934361e-01 2.855168058858386e-01
 2.883655269151124e-01 2.923890197301494e-01 2.883488012911800e-01 2.923156306924249e-01 2.843468336600042e-01 2.842303895641658e-01 2.894182250915448e-01 2.894229482004689e-01 2.894057456849028e-01 2.846999210834131e-01
 2.893903354538480e-01 2.893796882742856e-01 2.852999756241411e-01 2.861611208319846e-01 2.894137978845282e-01 2.896013556031447e-01 2.978330753000121e-01 2.979034999561472e-01 3.215323706840066e-01 3.218695866355031e-01
 2.976272514479992e-01 3.211174888524165e-01 3.205503828946596e-01 2.973016884174696e-01 3.198416404708549e-01 3.190075066774308e-01 2.968805886673588e-01 3.170280959151673e-01 2.958769559439395e-01 3.123429268081830e-01
 2.948849413582676e-01 3.099157380973296e-01 3.075866541109291e-01 3.512422425250104e-01 3.519224082007407e-01 3.503989027944572e-01 3.492317462398359e-01 3.477559655228637e-01 3.459930744673448e-01 3.417269684397958e-01
 3.874503960983646e-01 3.880429650910103e-01 3.867054999917799e-01 3.856510045747485e-01 3.842811011843340e-01 3.825801649077364e-01 3.781349509739073e-01 3.314194634428154e-01 3.647160249992989e-01 3.261260189714801e-01
 3.558844285187641e-01 3.235818189012308e-01 3.211452258327593e-01 3.511467575350674e-01 3.463501711047963e-01 4.127109391087697e-01 4.131476824675856e-01 4.113888785705418e-01 4.091439960693662e-01 4.059073873520664e-01
 4.311264218887891e-01 4.314871078864668e-01 4.300375563759740e-01 4.282014416299064e-01 4.255821426018876e-01 3.959775586118587e-01 4.177453729511346e-01 3.889021793892836e-01 4.123213065448419e-01 3.847252137158299e-01
 3.800758884123617e-01 4.056686468792353e-01 2.887253825193361e-01 2.900374686878177e-01 2.908005466904951e-01 2.924727362050228e-01 2.919436433447152e-01 2.934906840725094e-01 2.941526653840047e-01 3.054350235681444e-01
 3.035191415388037e-01 2.938635382342399e-01 3.018741199584331e-01 3.005200256920072e-01 3.188296153459821e-01 3.166510054006814e-01 3.416250244124248e-01 3.370865490250759e-01 3.127275458991582e-01 3.328183902938599e-01
 3.288758636176184e-01 3.749377418126130e-01 3.693192749777771e-01 3.975267204304973e-01 3.632883662856798e-01 3.569874271615875e-01 3.927868126248422e-01 3.875324861115291e-01 3.093925894652892e-01 3.252747217553325e-01
 3.220202427037444e-01 3.190929894546056e-01 3.164808743911984e-01 3.506338013567005e-01 3.444752586117695e-01 3.817201908822415e-01 3.753274846253346e-01 3.387230525922281e-01 3.335066927959725e-01 3.683981389801386e-01
 3.610816905474502e-01 2.994617000110242e-01 2.986978537462343e-01 2.982189397807120e-01 2.980114416144059e-01 3.121026559268316e-01 3.087024851939816e-01 3.288710930959535e-01 3.248075199712802e-01 3.536607759670897e-01
 3.464958524853357e-01 3.212691345379547e-01 3.182046302276177e-01 3.399030347614254e-01 3.340603508974653e-01 3.061259013306996e-01 3.132856590968936e-01 3.290053886868743e-01 3.246929625757983e-01 3.042458270251127e-01
 3.210339543231209e-01 3.179466352584534e-01 2.975060795862952e-01 2.973853111906636e-01 3.036512620164057e-01 3.034863013405387e-01 3.107085507494586e-01 3.104929611371006e-01 3.184748772499104e-01 3.142743252043853e-01
 3.181932649037904e-01 2.954424581525760e-01 2.977792676728441e-01 3.004708924440115e-01 3.034813258520973e-01 2.983448791382309e-01 3.029561975684071e-01 3.021718419654630e-01 3.131640200710921e-01 3.098261204672492e-01
 2.995536181686461e-01 3.018431528177576e-01 3.075797377754851e-01 3.061761053147052e-01 3.014888859215504e-01 3.054383800630269e-01 3.052345056560708e-01 3.040116730229064e-01 3.060454894918147e-01 3.067711075339591e-01
 3.102986320351955e-01 3.069984579801247e-01 3.080279880654119e-01 3.103437470596633e-01 3.107991406685431e-01 3.140202792952662e-01 3.139568987545744e-01 3.123940318341118e-01 3.140932221490336e-01 3.178883659493293e-01
 3.177591844650203e-01 3.177216455779883e-01 3.358719436910183e-01 3.269538482231718e-01 3.350918203269224e-01 3.500782001126281e-01 3.488733474781716e-01 3.588537776602762e-01 3.574277105663244e-01 3.614172996572147e-01
 3.631387812956935e-01 3.599696029113136e-01 3.617089737974168e-01 3.266162271003861e-01 3.262469011699255e-01 3.346449103712272e-01 3.341702354784102e-01 3.258440479681317e-01 3.336641451657933e-01 3.254513115413329e-01
 3.331520823057221e-01 3.475346948525767e-01 3.461579790911268e-01 3.559011171051508e-01 3.543914148883572e-01 3.584366317122323e-01 3.602064935470301e-01 3.569364580698395e-01 3.587458134605023e-01 3.678032213921568e-01
 3.679620307246071e-01 3.684425045122895e-01 3.685968968515020e-01 3.673307627094639e-01 3.679840731787448e-01 3.688290068575390e-01 3.689777650197722e-01 3.690728197458665e-01 3.692153627061506e-01 3.683879829486600e-01
 3.686507476413995e-01 3.692433377420505e-01 3.693794692437191e-01 3.688406636846528e-01 3.693148274679421e-01 3.694477554724946e-01 3.693819906243444e-01 3.695117404241583e-01 3.689218079231839e-01 3.689985291826091e-01
 3.694473008029232e-01 3.695739105409421e-01 3.690732664177966e-01 3.694798398592976e-01 3.696048970390897e-01 3.695125510934771e-01 3.696360685279624e-01 3.691104616874250e-01 3.691477878632133e-01 3.695455828926250e-01
 3.696675741656485e-01 3.695790598894514e-01 3.696995392362381e-01 3.691853914358313e-01 3.692233954945237e-01 3.696477635792069e-01 3.697652637064257e-01 3.693010146084566e-01 3.665598026094379e-01 3.672383443331126e-01
 3.655240982100591e-01 3.662395454036734e-01 3.676723358758341e-01 3.679672054544039e-01 3.667161001421720e-01 3.670556252672961e-01 3.681895854343153e-01 3.673226815866838e-01 3.682867856650228e-01 3.683793463678404e-01
 3.674418533962229e-01 3.675560195067629e-01 3.684696579620452e-01 3.676675146448896e-01 3.685145302528243e-01 3.685594557647221e-01 3.677228092090259e-01 3.677780391783601e-01 3.686045785979573e-01 3.686500199746942e-01
 3.678333463115839e-01 3.678888501422649e-01 3.687422621726637e-01 3.680008461573295e-01 3.697941687338319e-01 3.699058992035081e-01 3.699545491676555e-01 3.700607766498211e-01 3.694646748946647e-01 3.696415269893744e-01
 3.703216300263293e-01 3.704176845230981e-01 3.700392143376304e-01 3.707487845519468e-01 3.708358770306653e-01 3.712328414094598e-01 3.713124953306785e-01 3.704940756658796e-01 3.710033422350462e-01 3.689341406615618e-01
 3.682307350707069e-01 3.691378418526198e-01 3.684704955709066e-01 3.695851861837782e-01 3.689842973386980e-01 3.700846822888041e-01 3.706338638751249e-01 3.695435515182098e-01 3.701468211803676e-01 3.642790240495117e-01
 3.650412025794757e-01 3.628914624623106e-01 3.637091728961291e-01 3.655707409635072e-01 3.659653286974560e-01 3.643002529533066e-01 3.647579513317523e-01 3.662871147192384e-01 3.651418888247788e-01 3.664330982123207e-01
 3.665735668610354e-01 3.653181580471989e-01 3.654882419070802e-01 3.667107936305217e-01 3.656543559442066e-01 3.667787282382385e-01 3.668464424045158e-01 3.657364522811253e-01 3.658181353499763e-01 3.669140755922142e-01
 3.669817457992804e-01 3.658995431971243e-01 3.659807932011946e-01 3.671175899264907e-01 3.661432087163436e-01 3.614413068743063e-01 3.623224812861581e-01 3.600370389041412e-01 3.609825058406325e-01 3.629812951402356e-01
 3.635069197624595e-01 3.617078326914308e-01 3.622989413719567e-01 3.639567497617716e-01 3.628115461306822e-01 3.641648681071520e-01 3.643659482162664e-01 3.630498329586005e-01 3.632801795632120e-01 3.645621709676358e-01
 3.635047570127785e-01 3.646589879568394e-01 3.647551663055344e-01 3.636154161027784e-01 3.637252121164666e-01 3.648508448144770e-01 3.649461422853105e-01 3.638342864444045e-01 3.639427609400284e-01 3.651359844785212e-01
 3.641583060532173e-01 3.673932299947897e-01 3.676762294259494e-01 3.664696529926287e-01 3.668004905876652e-01 3.682692268422488e-01 3.674806706469895e-01 3.688989976548863e-01 3.695649318135272e-01 3.681878376228594e-01
 3.689227523832521e-01 3.655146625723472e-01 3.645858660166652e-01 3.658944934773039e-01 3.650115215544599e-01 3.666635219891828e-01 3.658636816313261e-01 3.674492951363089e-01 3.682540768355051e-01 3.667232706302676e-01
 3.675940555539557e-01 4.580030891417049e-01 4.592002723048147e-01 4.543749896118142e-01 4.481897875503895e-01 4.391707889632619e-01 4.242813874640541e-01 4.801292753235579e-01 4.812423222634051e-01 4.767776287012664e-01
 4.711435289161791e-01 4.631214895901304e-01 5.129745183354262e-01 5.174021086867722e-01 4.959242585320297e-01 4.904574825427561e-01 4.827786413643905e-01 5.074811842449256e-01 4.998421809840599e-01 5.425571132565936e-01
 5.473701607571656e-01 5.286125320032918e-01 5.667399737134227e-01 5.721600062413758e-01 5.513564082377979e-01 4.177122044740898e-01 4.098654236446695e-01 4.334369327149123e-01 4.267383891491712e-01 4.004220892612955e-01
 4.188957043520783e-01 3.889379530427396e-01 4.096360787444325e-01 4.524849466921144e-01 4.387563366378560e-01 3.822802636541996e-01 3.749798735267477e-01 3.985507321043317e-01 3.671230014786391e-01 3.589596025161998e-01
 3.921546325921725e-01 3.850965121495541e-01 4.304456639862381e-01 4.162583224610311e-01 4.052577023639738e-01 4.208940246864898e-01 3.509071132406987e-01 3.434162543981301e-01 3.773477469003171e-01 3.689830647244687e-01
 3.367901642823544e-01 3.311234137923260e-01 3.602736181054168e-01 3.517010622762197e-01 3.920401442748827e-01 4.097517377777948e-01 3.844102795603184e-01 3.760642384719566e-01 3.964906602318669e-01 4.728028545070511e-01
 4.603202616523673e-01 4.448665660173998e-01 4.357413888330126e-01 4.254090418359965e-01 4.124279086779685e-01 4.900553222425009e-01 4.780404845810136e-01 4.635684445374861e-01 4.461144109032756e-01 5.064622870578069e-01
 5.278142349017609e-01 4.761986943510941e-01 4.971640426347489e-01 5.934898945127988e-01 5.998915170215084e-01 5.943189078819591e-01 6.007558303027676e-01 5.757120565120849e-01 5.764529244818749e-01 5.496097334877538e-01
 5.173794253841688e-01 5.108377088619586e-01 5.502538161888757e-01 5.179556724276340e-01 5.179598353065537e-01 3.263647663283797e-01 3.224035051609910e-01 3.437961985942112e-01 3.369027278938754e-01 3.164051669883479e-01
 3.311040197591573e-01 3.263163337779558e-01 3.671373800371945e-01 3.580093419601004e-01 3.888612434240226e-01 3.804900482595225e-01 3.492682682344861e-01 3.414553446573352e-01 3.714431950721495e-01 3.620193479010216e-01
 3.191975165641512e-01 3.348288147894725e-01 3.293771618912704e-01 3.527929913376556e-01 3.444064588200512e-01 3.144877455549479e-01 3.249524727721332e-01 3.213823749441944e-01 3.372491150680675e-01 3.313752540461040e-01
 3.988983091797599e-01 4.135168301862525e-01 3.911427387070348e-01 3.826379090926414e-01 3.995271506357669e-01 3.734280804478740e-01 3.637884303757559e-01 3.827789244897565e-01 3.542962272204987e-01 3.456417692661929e-01
 3.733316096559333e-01 3.634992000090438e-01 4.244936849113068e-01 4.113533299991480e-01 3.985144552032066e-01 3.901706273059162e-01 3.810731100210310e-01 3.959173577157994e-01 3.114454028507005e-01 3.266423160351329e-01
 3.228631241696283e-01 3.095969813494425e-01 3.174730956871390e-01 3.083400102493599e-01 3.141453619661319e-01 3.122280197512892e-01 3.382690296832714e-01 3.322531761758191e-01 3.539055434759248e-01 3.452598815622263e-01
 3.274464320917999e-01 3.236392152870810e-01 3.379801046509492e-01 3.321009138026521e-01 3.713354061971464e-01 3.613643166049462e-01 3.871297418018413e-01 3.776136366019509e-01 3.518632033586698e-01 3.435114068834743e-01
 3.675980852579256e-01 3.576436109977222e-01 3.274442635499488e-01 3.237915769256294e-01 3.366162702571481e-01 3.311211405732952e-01 3.485121451242386e-01 3.407558645746564e-01 3.187276772162899e-01 3.234656644564510e-01
 3.345006763175542e-01 3.295866957015462e-01 4.573905597947437e-01 4.428453786692655e-01 4.313889843326575e-01 4.184504811071773e-01 4.350390152550537e-01 4.789353974113475e-01 4.581938193345712e-01 4.479564085217779e-01
 4.035053481672466e-01 3.917259994417416e-01 3.824159835382931e-01 3.724804109664443e-01 3.858985368924779e-01 4.219332936836610e-01 4.069466357837214e-01 3.973055540693203e-01 3.623359117903727e-01 3.527088462913071e-01
 3.760523527336340e-01 3.658455657645544e-01 3.443001684641269e-01 3.374174626225421e-01 3.559345499420684e-01 3.470839546489629e-01 3.784096239541151e-01 3.894395065766810e-01 3.681820310163398e-01 3.581219694403278e-01
 3.796461116119128e-01 3.693976138788722e-01 4.222889478630893e-01 4.068814255828467e-01 3.889788735992802e-01 3.798350497754918e-01 4.338680587484064e-01 4.196914265399541e-01 4.035288026700511e-01 4.925737060054139e-01
 4.989956476605896e-01 4.722461831357402e-01 4.787358798043725e-01 4.491216305782473e-01 4.216423834207573e-01 4.141092928442255e-01 4.559666974979451e-01 4.294000664368169e-01 4.266499396355045e-01 4.995608303861363e-01
 4.995556790443769e-01 4.793013309532876e-01 4.792945570781961e-01 4.565546185338555e-01 4.565450861073328e-01 4.300512164535764e-01 4.300366509946181e-01 3.111326075508269e-01 3.157596672629235e-01 3.141956840025659e-01
 3.228376430435738e-01 3.189042583609592e-01 3.122825959338115e-01 3.167801944619849e-01 3.158687143857547e-01 3.319888093478089e-01 3.277794413572806e-01 3.397398628030948e-01 3.339178372336796e-01 3.490116460526709e-01
 3.413805730048373e-01 3.592717910316019e-01 3.500527006044551e-01 3.259535790856271e-01 3.353122063642900e-01 3.306119958980934e-01 3.423039977732318e-01 3.361375000589549e-01 3.695544226132866e-01 3.594236120154080e-01
 3.790325950967759e-01 3.687127011626782e-01 3.502277066855050e-01 3.425219944507008e-01 3.586405742547478e-01 3.495970516678556e-01 3.848218657622015e-01 3.772763392386745e-01 3.669338773543202e-01 3.570067590251201e-01
 3.746008969397126e-01 3.642900011103591e-01 3.213631403422235e-01 3.277430314289890e-01 3.364099010608835e-01 3.316988558468700e-01 3.420880674590917e-01 3.361684489443660e-01 3.482540670445383e-01 3.410887780330040e-01
 3.546323292941908e-01 3.463220693835873e-01 3.188915404944148e-01 3.229719640343530e-01 3.282010766876142e-01 3.354919696784752e-01 3.312233898745738e-01 3.396368703286382e-01 3.344682350671738e-01 3.968304672042869e-01
 3.913158975391566e-01 3.813832029541597e-01 3.872203508795980e-01 3.710492990646330e-01 3.770509558763427e-01 4.053036544777416e-01 3.865309815220455e-01 3.822110675365064e-01 3.608827581311512e-01 3.516613282939889e-01
 3.666979572369044e-01 3.568595433466376e-01 3.439499118707033e-01 3.378587779286827e-01 3.482718981778266e-01 3.413011785203107e-01 3.718717899865416e-01 3.763028669288173e-01 3.616856907164234e-01 3.659655218399930e-01
 3.524247240299707e-01 3.446671677299526e-01 3.562372729722093e-01 3.478274742463033e-01 4.108694383633705e-01 4.139008147075653e-01 3.928151651060237e-01 3.962327893842546e-01 3.725163836616788e-01 3.695920422353504e-01
 3.595700310426129e-01 3.506564673926469e-01 3.623234850583493e-01 3.530461896407708e-01 3.762043039728221e-01 3.658775757547418e-01 3.562052068296429e-01 4.146120685388865e-01 3.970284891433110e-01 4.145935022875827e-01
 3.970043222566813e-01 3.770665191421221e-01 3.770354087802236e-01 3.667166862087080e-01 3.569579103097392e-01 3.666825462194364e-01 3.569217917840724e-01 3.133829930470989e-01 3.157977960851376e-01 3.178023153551495e-01
 3.204513249526443e-01 3.237608675776151e-01 3.276316336280592e-01 3.358944041610337e-01 3.318011329109418e-01 3.385421147048755e-01 3.338629048012468e-01 3.410512492784767e-01 3.358220444671592e-01 3.433246072691973e-01
 3.376006017562115e-01 3.452697811067334e-01 3.391322673882538e-01 3.478817121335429e-01 3.411994321452216e-01 3.485041757847315e-01 3.484671029081061e-01 3.416859354072791e-01 3.416483629559058e-01 3.147250424125867e-01
 3.163239551845903e-01 3.176478244735264e-01 3.193763993040321e-01 3.214991313954377e-01 3.239331992284406e-01 3.265069992658228e-01 3.289544024553629e-01 3.309536533109069e-01 3.321974913793802e-01 3.324721233846851e-01
 3.324332358721070e-01 3.179132145141901e-01 3.185441409194964e-01 3.198078997847492e-01 3.216558426808352e-01 3.236118707843412e-01 3.248151426152713e-01 3.248815617442535e-01 3.248365589318326e-01 5.943176960078204e-01
 6.007558303027676e-01 5.943171267575097e-01 6.007558303027676e-01 5.764506356190727e-01 5.764494942815890e-01 5.943167428634841e-01 6.007558303027676e-01 5.764486978613218e-01 5.502504686084622e-01 5.502486935511671e-01
 5.502473988474834e-01 5.179507098526676e-01 5.179480591803636e-01 5.179460318526621e-01 4.995495339726010e-01 4.995462479979775e-01 4.792866880537934e-01 4.792824831644074e-01 4.995436546469285e-01 4.792790269885022e-01
 4.565344805866272e-01 4.565288025158004e-01 4.565238769945841e-01 4.300212115719284e-01 4.300128241542006e-01 4.300049982419084e-01 4.145741455769070e-01 4.145634321466831e-01 3.969792362595401e-01 3.969648985990151e-01
 4.145529544874422e-01 3.969500193782025e-01 3.770024432777697e-01 3.769825673723142e-01 3.769602783728752e-01 3.666454998865338e-01 3.666223628708376e-01 3.568814011092898e-01 3.568552386779391e-01 3.665952513726784e-01
 3.568232854523222e-01 3.484243659537401e-01 3.483957796896598e-01 3.416039364082961e-01 3.415734801282494e-01 3.483596833912393e-01 3.415341219642315e-01 3.323858012186118e-01 3.323523354622791e-01 3.323081111178982e-01
 3.247805000397523e-01 3.247401911208913e-01 3.246869329912836e-01 3.252446093416506e-01 3.254814555989051e-01 3.326880700900151e-01 3.323401217256386e-01 3.257898836313969e-01 3.256601847846456e-01 3.321072539875806e-01
 3.318932276830297e-01 3.449617841028438e-01 3.441735584046101e-01 3.530870119447089e-01 3.521521245551020e-01 3.556372429369708e-01 3.574753064307713e-01 3.546757327674260e-01 3.565095610263710e-01 3.255740159251461e-01
 3.255098946674609e-01 3.254281228792031e-01 3.317572413595800e-01 3.316525955450749e-01 3.315236239858996e-01 3.437256667564553e-01 3.434719093062241e-01 3.515527569278656e-01 3.511771627313526e-01 3.540318991936554e-01
 3.558393442960006e-01 3.536137689827902e-01 3.553907985081345e-01 5.943166096229565e-01 6.007558303027676e-01 5.764484136920641e-01 5.943165514742942e-01 6.007558303027676e-01 5.764482867666019e-01 5.502469139417728e-01
 5.502466883344663e-01 5.179452131843668e-01 5.179448087453102e-01 4.995425541735817e-01 4.792774718220035e-01 4.995419907457468e-01 4.792766442966118e-01 4.565215077448000e-01 4.565201960721533e-01 4.300009445965140e-01
 4.299986088542103e-01 4.145473011334220e-01 3.969416067154630e-01 4.145439741690869e-01 3.969365352825812e-01 3.769469544194911e-01 3.769386877579793e-01 3.665785634484485e-01 3.568030987478660e-01 3.665680534015081e-01
 3.567902177437106e-01 3.483364247583912e-01 3.415084315725595e-01 3.483214393230343e-01 3.414917777296876e-01 3.322789196169626e-01 3.322599051954046e-01 3.246519100676956e-01 3.246291799833154e-01 5.943165242325543e-01
 6.007558303027676e-01 5.764482265137935e-01 5.943165159987215e-01 6.007558303027676e-01 5.764482082090399e-01 5.502465788159527e-01 5.502465452616168e-01 5.179446063014872e-01 5.179445435762742e-01 4.995417038695090e-01
 4.792762155088500e-01 4.995416144425778e-01 4.792760810220630e-01 4.565195045994172e-01 4.565192864163373e-01 4.299973561756770e-01 4.299969584747328e-01 4.145421729941456e-01 3.969337582594623e-01 4.145415991066626e-01
 3.969328693985072e-01 3.769340954651647e-01 3.769326166596564e-01 3.665621699170932e-01 3.567829584602609e-01 3.665602690954500e-01 3.567806063858229e-01 3.483129523613609e-01 3.414823169510557e-01 3.483101967045313e-01
 3.414792411071860e-01 3.322490793919453e-01 3.322455565662529e-01 3.246162718670252e-01 3.246120766858546e-01 3.253758058990911e-01 3.314423028307108e-01 3.253424707854898e-01 3.313911538377757e-01 3.433080261408301e-01
 3.432052747439494e-01 3.509329641064144e-01 3.507789027691313e-01 3.533389443870406e-01 3.550921702158152e-01 3.531645840672216e-01 3.549014295260674e-01 3.253237570474363e-01 3.253177078174308e-01 3.313626985010644e-01
 3.313535408429558e-01 3.431484299774215e-01 3.431301939352425e-01 3.506934395588055e-01 3.506659962592265e-01 3.530675817312391e-01 3.547949376180634e-01 3.530363950225128e-01 3.547606470029064e-01 3.588090042575368e-01
 3.598037918587679e-01 3.578542055773952e-01 3.588694519740099e-01 3.605808509686362e-01 3.612234851971651e-01 3.596724684541351e-01 3.603439107463104e-01 3.617860021543209e-01 3.609364340674679e-01 3.620484550585317e-01
 3.623023574103585e-01 3.612140141100209e-01 3.614830135005590e-01 3.625498641631659e-01 3.617455288672901e-01 3.626717557461717e-01 3.627926275715678e-01 3.618748780710400e-01 3.620031704363084e-01 3.629126222116057e-01
 3.630318631025713e-01 3.621305450160599e-01 3.622571222855179e-01 3.632684805169215e-01 3.625082713904163e-01 3.571714447885143e-01 3.581841209799177e-01 3.567025563269720e-01 3.577027713757975e-01 3.589914817541435e-01
 3.596719428633592e-01 3.585036415540850e-01 3.591820722796238e-01 3.602765966106208e-01 3.597880248132524e-01 3.605610360762234e-01 3.608373066544804e-01 3.600740662927225e-01 3.603524819990654e-01 3.611074253477827e-01
 3.606252203561858e-01 3.612406775666389e-01 3.613729324902001e-01 3.607599388783694e-01 3.608937574171670e-01 3.615043227601474e-01 3.616349630152725e-01 3.610268025140181e-01 3.611591831244783e-01 3.618943626721316e-01
 3.614223038416092e-01 3.637363876295126e-01 3.642001991738996e-01 3.630046266933043e-01 3.634960255340107e-01 3.651224911687010e-01 3.644707564356611e-01 3.660453840672779e-01 3.669737190854567e-01 3.654425712975045e-01
 3.664163951548375e-01 3.624076042898236e-01 3.619438348411411e-01 3.629161842671304e-01 3.624615802420482e-01 3.639256315809323e-01 3.634913782881081e-01 3.649318128409100e-01 3.659391979122745e-01 3.645193399464949e-01
 3.655489098986826e-01 3.563861537072248e-01 3.573735906274222e-01 3.561825576568067e-01 3.571601217859582e-01 3.581656944730502e-01 3.588385456763609e-01 3.579448091502293e-01 3.586122549026937e-01 3.594414575212938e-01
 3.592114199410145e-01 3.597267531799826e-01 3.600048827714813e-01 3.594953671423402e-01 3.597724664705073e-01 3.602777512858141e-01 3.600445986276588e-01 3.604126769095962e-01 3.605467927001518e-01 3.601792582845352e-01
 3.603131736716769e-01 3.606802211183987e-01 3.608130672713960e-01 3.604464648935248e-01 3.605792348135120e-01 3.610773549180405e-01 3.608435466237154e-01 3.560684316355455e-01 3.570399434644695e-01 3.560316172420705e-01
 3.570011009794491e-01 3.578198945968050e-01 3.584836964105296e-01 3.577794377641070e-01 3.584419701992602e-01 3.590801339954909e-01 3.590374295457570e-01 3.593630133483818e-01 3.596392261649756e-01 3.593199143843368e-01
 3.595957908322180e-01 3.599106411826609e-01 3.598669239261203e-01 3.600450018326221e-01 3.601786566475926e-01 3.600011627937014e-01 3.601347082078815e-01 3.603117245647766e-01 3.604443073333938e-01 3.602676787308388e-01
 3.604001757488445e-01 3.607083502207293e-01 3.606640810455244e-01 3.616020847003852e-01 3.621239956162674e-01 3.613689847914840e-01 3.618923663823110e-01 3.631645910595981e-01 3.629379066645443e-01 3.642056847648987e-01
 3.652501850141602e-01 3.639858670588902e-01 3.650384767746384e-01 3.612336490486791e-01 3.611892324757012e-01 3.617573625037427e-01 3.617129469210544e-01 3.628048397341280e-01 3.627608093121716e-01 3.638560596591727e-01
 3.649130265216931e-01 3.638127043388570e-01 3.648702723235011e-01 3.717700974574074e-01 3.718447929354053e-01 3.723565029494910e-01 3.724314866146160e-01 3.715641261423379e-01 3.721744293424150e-01 3.712297836353208e-01
 3.718692513957352e-01 3.707926298846104e-01 3.714805140467046e-01 3.702659316862058e-01 3.710007878720718e-01 3.696856783657089e-01 3.704771007247784e-01 3.690793076671825e-01 3.699262323817328e-01 3.684786788263800e-01
 3.693793261674959e-01 3.735462407321448e-01 3.737771310754214e-01 3.729901667960984e-01 3.721501957802612e-01 3.712343048243677e-01 3.764934433610419e-01 3.770538395863658e-01 3.752201141153717e-01 3.806331144774645e-01
 3.810403623185989e-01 3.855261981479365e-01 3.858299954900692e-01 3.796937244130579e-01 3.848174748774328e-01 3.679111575391885e-01 3.688611141475724e-01 3.673958538846695e-01 3.683838758269722e-01 3.669513566743811e-01
 3.679719133290735e-01 3.665825101590529e-01 3.676217677466520e-01 3.663005568237573e-01 3.673597238343401e-01 3.660973602938709e-01 3.671638597083395e-01 3.659774516618929e-01 3.670516560361329e-01 3.659344285293164e-01
 3.670054656458651e-01 3.703910915034681e-01 3.697159542827048e-01 3.693199850925218e-01 3.691625674015258e-01 3.740693296772551e-01 3.736304889561398e-01 3.788206867153413e-01 3.841456409772466e-01 3.784793616976907e-01
 3.838785220594550e-01 3.913731583946951e-01 3.916066114642590e-01 3.985268133226337e-01 3.987128693476977e-01 3.908239771561178e-01 3.980864818333104e-01 4.076393718106724e-01 4.077950696297211e-01 4.200734544283881e-01
 4.202137252226911e-01 4.072693507729202e-01 4.197392880759593e-01 3.902960483136374e-01 3.976590312481103e-01 3.900837240959842e-01 3.974857684703640e-01 4.069077761383372e-01 4.194114930563373e-01 4.067604514944397e-01
 4.192775239466684e-01 4.393981904141335e-01 4.395434516881923e-01 4.800264679392157e-01 4.802471087047444e-01 4.390521336657153e-01 4.795037929508569e-01 6.475379648524515e-01 6.484272432094466e-01 6.454569164901898e-01
 3.431065949956237e+00 3.434192854058102e+00 3.423495497166916e+00 4.387125716950748e-01 4.789948111628449e-01 4.385737288020066e-01 4.787877482507063e-01 6.434643152094685e-01 6.426630811373110e-01 3.415898988446201e+00
 3.412743938943580e+00 5.943165242147473e-01 6.007558303027676e-01 5.764482264738816e-01 5.943165514368867e-01 6.007558303027676e-01 5.764482866826479e-01 5.502465787418452e-01 5.502466881782602e-01 5.179446061609031e-01
 5.179448084482363e-01 4.995417036680173e-01 4.792762152056900e-01 4.995419903194411e-01 4.792766436544507e-01 4.565195041135197e-01 4.565201950417920e-01 4.299973553325004e-01 4.299986070641069e-01 4.145421718519232e-01
 3.969337567024407e-01 4.145439717419653e-01 3.969365319688276e-01 3.769340934622250e-01 3.769386834801532e-01 3.665621677929559e-01 3.567829563371790e-01 3.665680488502273e-01 3.567902131749411e-01 3.483129503136822e-01
 3.414823149659040e-01 3.483214348953633e-01 3.414917734197906e-01 3.322490773333195e-01 3.322599007121350e-01 3.246162688700207e-01 3.246291734987216e-01 5.943166095634139e-01 6.007558303027676e-01 5.764484135577965e-01