DF-ISE text

Info {
  version = 1.0
  type    = dataset
  dimension   = 2
  nb_vertices = 1377
  nb_edges    = 3808
  nb_faces    = 0
  nb_elements = 2448
  nb_regions  = 3
  datasets    = [ "ElectrostaticPotential" "eDensity" "hDensity" "LatticeTemperature" "EffectiveIntrinsicDensity" "IntrinsicDensity" "eEquilibriumDensity" "hEquilibriumDensity" "BandGap" "EffectiveBandGap" "BandgapNarrowing" "ValenceBandEnergy" "ConductionBandEnergy" "hEffectiveStateDensity" "eEffectiveStateDensity" "eQuasiFermiEnergy" "hQuasiFermiEnergy" "ElectronAffinity" "TotalCurrentDensity" "eCurrentDensity" "hCurrentDensity" "eMobility" "hMobility" "eVelocity" "hVelocity" "ElectricField" "eQuasiFermiPotential" "hQuasiFermiPotential" "SpaceCharge" "eGradQuasiFermi" "hGradQuasiFermi" "eEparallel" "hEparallel" "eEnormal" "hEnormal" "srhRecombination" "Band2BandGeneration" "AugerRecombination" "RadiativeRecombination" "ImpactIonization" "eImpactIonization" "hImpactIonization" "eAlphaAvalanche" "hAlphaAvalanche" "TotalRecombination" "eLifetime" "hLifetime" "SurfaceRecombination" "DopingConcentration" "DonorConcentration" "AcceptorConcentration" "DonorPlusConcentration" "AccepMinusConcentration" "QuasiFermiPotential" ]
  functions   = [ ElectrostaticPotential eDensity hDensity LatticeTemperature EffectiveIntrinsicDensity IntrinsicDensity eEquilibriumDensity hEquilibriumDensity BandGap EffectiveBandGap BandgapNarrowing ValenceBandEnergy ConductionBandEnergy hEffectiveStateDensity eEffectiveStateDensity eQuasiFermiEnergy hQuasiFermiEnergy ElectronAffinity TotalCurrentDensity eCurrentDensity hCurrentDensity eMobility hMobility eVelocity hVelocity ElectricField eQuasiFermiPotential hQuasiFermiPotential SpaceCharge eGradQuasiFermi hGradQuasiFermi eEparallel hEparallel eEnormal hEnormal srhRecombination Band2BandGeneration AugerRecombination RadiativeRecombination ImpactIonization eImpactIonization hImpactIonization eAlphaAvalanche hAlphaAvalanche TotalRecombination eLifetime hLifetime SurfaceRecombination DopingConcentration DonorConcentration AcceptorConcentration DonorPlusConcentration AccepMinusConcentration QuasiFermiPotential ]
}

Data {

  Dataset ("ElectrostaticPotential") {
    function  = ElectrostaticPotential
    type      = scalar
    dimension = 1
    location  = vertex
    validity  = [ "N-" ]
    Values (1377) {
 -4.085326497777865e-01 -4.046067557923020e-01 -4.085326497777865e-01 -4.055300936786575e-01 -4.055300936786575e-01 -4.085326497777865e-01 -4.046067557923020e-01 -4.055300936786575e-01 -3.956075972419906e-01 -3.956075972419906e-01
 -3.787860441224314e-01 -3.787860441224314e-01 -3.956075972419906e-01 -3.787860441224314e-01 -4.085326497777865e-01 -4.046067557923020e-01 -4.055300936786575e-01 -4.085326497777865e-01 -4.046067557923020e-01 -4.055300936786575e-01
 -3.956075972419906e-01 -3.787860441224314e-01 -3.956075972419906e-01 -3.787860441224314e-01 -3.550807249989097e-01 -3.550807249989097e-01 -3.550807249989097e-01 -3.244868790654457e-01 -3.244868790654457e-01 -3.244868790654457e-01
 -3.065946914051254e-01 -3.065946914051254e-01 -2.865514396914803e-01 -2.865514396914803e-01 -3.065946914051254e-01 -2.865514396914803e-01 -1.702994994230235e-01 -1.702994994230236e-01 3.991645130500299e+00 3.991645130500299e+00
 -1.702994994230234e-01 3.991645130500299e+00 -3.550807249989097e-01 -3.550807249989097e-01 -3.244868790654457e-01 -3.244868790654457e-01 -3.065946914051254e-01 -2.865514396914803e-01 -3.065946914051254e-01 -2.865514396914803e-01
 -1.702994994230236e-01 3.991645130500298e+00 -1.702994994230236e-01 3.991645130500298e+00 1.035449045039871e+01 1.035449045039871e+01 1.777696415829622e+01 1.777696415829622e+01 1.035449045039871e+01 1.777696415829622e+01
 2.567653817705761e+01 2.567653817705761e+01 2.567653817705761e+01 2.969960008751830e+01 2.969960008751830e+01 3.375214899923199e+01 3.375214899923199e+01 2.969960008751830e+01 3.375214899923199e+01 3.782126585422792e+01
 3.782126585422792e+01 3.782126585422792e+01 3.985884754397087e+01 3.985884754397087e+01 4.189767854287348e+01 4.189767854287348e+01 3.985884754397087e+01 4.189767854287348e+01 4.393714339336528e+01 4.393714339336528e+01
 4.597674935140052e+01 4.597674935140052e+01 4.393714339336528e+01 4.597674935140052e+01 4.801610321707334e+01 4.801610321707334e+01 5.005489225564791e+01 5.005489225564791e+01 4.801610321707334e+01 5.005489225564791e+01
 5.413003209177621e+01 5.413003209177621e+01 5.413003209177621e+01 5.820052024807040e+01 5.820052024807040e+01 5.820052024807040e+01 6.632495114479775e+01 6.632495114479775e+01 6.632495114479775e+01 1.035449045039871e+01
 1.777696415829622e+01 1.035449045039871e+01 1.777696415829622e+01 2.567653817705761e+01 2.567653817705761e+01 2.969960008751830e+01 3.375214899923199e+01 2.969960008751830e+01 3.375214899923199e+01 3.782126585422792e+01
 3.782126585422792e+01 3.985884754397088e+01 4.189767854287348e+01 3.985884754397088e+01 4.189767854287348e+01 4.393714339336528e+01 4.597674935140052e+01 4.393714339336528e+01 4.597674935140052e+01 4.801610321707334e+01
 5.005489225564791e+01 4.801610321707334e+01 5.005489225564791e+01 5.413003209177621e+01 5.413003209177621e+01 5.820052024807040e+01 5.820052024807040e+01 6.632495114479777e+01 6.632495114479777e+01 8.249754060355235e+01
 8.249754060355235e+01 9.856210164664927e+01 9.856210164664927e+01 8.249754060355235e+01 9.856210164664927e+01 1.145179767917567e+02 1.145179767917567e+02 1.303651103594927e+02 1.303651103594927e+02 1.145179767917567e+02
 1.303651103594927e+02 8.249754060355235e+01 8.249754060355235e+01 9.856210164664927e+01 9.856210164664928e+01 1.145179767917567e+02 1.303651103594927e+02 1.145179767917567e+02 1.303651103594927e+02 1.461034985010239e+02
 1.461034985010239e+02 1.617331409990473e+02 1.617331409990473e+02 1.461034985010239e+02 1.617331409990473e+02 1.772540378435372e+02 1.772540378435372e+02 1.926661890341156e+02 1.926661890341156e+02 1.772540378435372e+02
 1.926661890341156e+02 1.461034985010239e+02 1.617331409990473e+02 1.461034985010239e+02 1.617331409990473e+02 1.772540378435372e+02 1.926661890341156e+02 1.772540378435372e+02 1.926661890341156e+02 2.079695945707712e+02
 2.079695945707712e+02 2.231642544535037e+02 2.231642544535037e+02 2.079695945707712e+02 2.231642544535037e+02 2.382501686823136e+02 2.382501686823136e+02 2.532273372572008e+02 2.532273372572008e+02 2.382501686823136e+02
 2.532273372572008e+02 2.079695945707712e+02 2.231642544535037e+02 2.079695945707712e+02 2.231642544535037e+02 2.382501686823136e+02 2.532273372572008e+02 2.382501686823136e+02 2.532273372572008e+02 2.680957601781658e+02
 2.680957601781658e+02 2.828554374452087e+02 2.828554374452087e+02 2.680957601781658e+02 2.828554374452087e+02 2.975063690583298e+02 2.975063690583298e+02 3.120485550175291e+02 3.120485550175291e+02 2.975063690583298e+02
 3.120485550175291e+02 2.680957601781658e+02 2.828554374452087e+02 2.680957601781658e+02 2.828554374452087e+02 2.975063690583298e+02 3.120485550175291e+02 2.975063690583298e+02 3.120485550175291e+02 3.264819953228072e+02
 3.264819953228072e+02 3.408066899741640e+02 3.408066899741640e+02 3.264819953228072e+02 3.408066899741640e+02 3.550226389716000e+02 3.550226389716000e+02 3.691298423151153e+02 3.691298423151153e+02 3.550226389716000e+02
 3.691298423151153e+02 3.264819953228072e+02 3.408066899741640e+02 3.264819953228072e+02 3.408066899741640e+02 3.550226389716000e+02 3.691298423151153e+02 3.550226389716000e+02 3.691298423151153e+02 3.831283000047102e+02
 3.831283000047102e+02 3.970180120403850e+02 3.970180120403850e+02 3.831283000047102e+02 3.970180120403850e+02 4.107989784221398e+02 4.107989784221398e+02 4.244711991499751e+02 4.244711991499751e+02 4.107989784221398e+02
 4.244711991499751e+02 3.831283000047102e+02 3.970180120403850e+02 3.831283000047102e+02 3.970180120403850e+02 4.107989784221398e+02 4.244711991499751e+02 4.107989784221398e+02 4.244711991499751e+02 4.380346742238909e+02
 4.380346742238909e+02 4.514894036438877e+02 4.514894036438877e+02 4.380346742238909e+02 4.514894036438877e+02 4.648353874099657e+02 4.648353874099657e+02 4.780726255221251e+02 4.780726255221251e+02 4.648353874099657e+02
 4.780726255221251e+02 4.380346742238909e+02 4.514894036438877e+02 4.380346742238909e+02 4.514894036438877e+02 4.648353874099657e+02 4.780726255221251e+02 4.648353874099657e+02 4.780726255221251e+02 4.912011179803663e+02
 4.912011179803663e+02 5.042208647846896e+02 5.042208647846896e+02 4.912011179803663e+02 5.042208647846896e+02 5.171318659350952e+02 5.171318659350952e+02 5.299341214315833e+02 5.299341214315833e+02 5.171318659350952e+02
 5.299341214315833e+02 4.912011179803663e+02 5.042208647846896e+02 4.912011179803663e+02 5.042208647846896e+02 5.171318659350952e+02 5.299341214315833e+02 5.171318659350952e+02 5.299341214315833e+02 5.426276312741546e+02
 5.426276312741546e+02 5.552123954628090e+02 5.552123954628090e+02 5.426276312741546e+02 5.552123954628090e+02 5.676884139975471e+02 5.676884139975471e+02 5.800556868783690e+02 5.800556868783690e+02 5.676884139975471e+02
 5.800556868783690e+02 5.426276312741546e+02 5.552123954628090e+02 5.426276312741545e+02 5.552123954628090e+02 5.676884139975471e+02 5.800556868783690e+02 5.676884139975471e+02 5.800556868783690e+02 5.923142141052751e+02
 5.923142141052751e+02 6.044639956782659e+02 6.044639956782659e+02 5.923142141052751e+02 6.044639956782659e+02 6.165050315973416e+02 6.165050315973416e+02 6.284373218625024e+02 6.284373218625024e+02 6.165050315973416e+02
 6.284373218625024e+02 5.923142141052751e+02 6.044639956782659e+02 5.923142141052751e+02 6.044639956782659e+02 6.165050315973416e+02 6.284373218625024e+02 6.165050315973416e+02 6.284373218625024e+02 6.402608664737488e+02
 6.402608664737488e+02 6.519756654310812e+02 6.519756654310812e+02 6.402608664737488e+02 6.519756654310812e+02 6.635817187345000e+02 6.635817187345000e+02 6.750790263840054e+02 6.750790263840054e+02 6.635817187345000e+02
 6.750790263840054e+02 6.402608664737488e+02 6.519756654310812e+02 6.402608664737488e+02 6.519756654310812e+02 6.635817187345000e+02 6.750790263840054e+02 6.635817187345000e+02 6.750790263840054e+02 6.864675883795979e+02
 6.864675883795979e+02 6.977474047212779e+02 6.977474047212779e+02 6.864675883795979e+02 6.977474047212779e+02 7.089184754090458e+02 7.089184754090458e+02 7.199808004429018e+02 7.199808004429018e+02 7.089184754090458e+02
 7.199808004429018e+02 6.864675883795979e+02 6.977474047212779e+02 6.864675883795979e+02 6.977474047212779e+02 7.089184754090458e+02 7.199808004429018e+02 7.089184754090458e+02 7.199808004429018e+02 7.309343798228466e+02
 7.309343798228466e+02 7.417792135488804e+02 7.417792135488804e+02 7.309343798228466e+02 7.417792135488804e+02 7.525153016210038e+02 7.525153016210038e+02 7.631426440392171e+02 7.631426440392171e+02 7.525153016210038e+02
 7.631426440392171e+02 7.309343798228466e+02 7.417792135488804e+02 7.309343798228466e+02 7.417792135488804e+02 7.525153016210038e+02 7.631426440392171e+02 7.525153016210038e+02 7.631426440392171e+02 -4.085326497777865e-01
 -4.046067557923020e-01 -4.055300936786575e-01 -4.085326497777865e-01 -4.046067557923020e-01 -4.055300936786575e-01 -3.956075972419906e-01 -3.787860441224314e-01 -3.956075972419906e-01 -3.787860441224314e-01 -3.550807249989097e-01
 -3.550807249989097e-01 -3.244868790654457e-01 -3.244868790654457e-01 -3.065946914051254e-01 -2.865514396914803e-01 -3.065946914051254e-01 -2.865514396914803e-01 -1.702994994230235e-01 3.991645130500299e+00 -1.702994994230235e-01
 3.991645130500300e+00 1.035449045039871e+01 1.777696415829622e+01 1.035449045039871e+01 1.777696415829622e+01 2.567653817705761e+01 2.567653817705761e+01 2.969960008751830e+01 3.375214899923199e+01 2.969960008751830e+01
 3.375214899923199e+01 3.782126585422792e+01 3.782126585422792e+01 3.985884754397087e+01 4.189767854287348e+01 3.985884754397088e+01 4.189767854287348e+01 4.393714339336528e+01 4.597674935140052e+01 4.393714339336528e+01
 4.597674935140052e+01 4.801610321707334e+01 5.005489225564791e+01 4.801610321707334e+01 5.005489225564791e+01 5.413003209177621e+01 5.413003209177621e+01 5.820052024807040e+01 5.820052024807040e+01 6.632495114479777e+01
 6.632495114479777e+01 8.249754060355235e+01 8.249754060355235e+01 9.856210164664928e+01 9.856210164664928e+01 1.145179767917567e+02 1.303651103594927e+02 1.145179767917567e+02 1.303651103594927e+02 1.461034985010239e+02
 1.617331409990473e+02 1.461034985010239e+02 1.617331409990473e+02 1.772540378435372e+02 1.926661890341156e+02 1.772540378435372e+02 1.926661890341156e+02 2.079695945707712e+02 2.231642544535037e+02 2.079695945707712e+02
 2.231642544535037e+02 2.382501686823136e+02 2.532273372572008e+02 2.382501686823136e+02 2.532273372572008e+02 2.680957601781658e+02 2.828554374452087e+02 2.680957601781658e+02 2.828554374452087e+02 2.975063690583298e+02
 3.120485550175291e+02 2.975063690583298e+02 3.120485550175291e+02 3.264819953228072e+02 3.408066899741640e+02 3.264819953228072e+02 3.408066899741640e+02 3.550226389716000e+02 3.691298423151153e+02 3.550226389716000e+02
 3.691298423151153e+02 3.831283000047102e+02 3.970180120403850e+02 3.831283000047102e+02 3.970180120403850e+02 4.107989784221398e+02 4.244711991499751e+02 4.107989784221398e+02 4.244711991499751e+02 4.380346742238909e+02
 4.514894036438877e+02 4.380346742238909e+02 4.514894036438877e+02 4.648353874099657e+02 4.780726255221251e+02 4.648353874099657e+02 4.780726255221251e+02 4.912011179803663e+02 5.042208647846896e+02 4.912011179803663e+02
 5.042208647846896e+02 5.171318659350952e+02 5.299341214315833e+02 5.171318659350952e+02 5.299341214315833e+02 5.426276312741546e+02 5.552123954628090e+02 5.426276312741546e+02 5.552123954628090e+02 5.676884139975471e+02
 5.800556868783690e+02 5.676884139975471e+02 5.800556868783690e+02 5.923142141052751e+02 6.044639956782659e+02 5.923142141052751e+02 6.044639956782659e+02 6.165050315973416e+02 6.284373218625024e+02 6.165050315973416e+02
 6.284373218625024e+02 6.402608664737488e+02 6.519756654310812e+02 6.402608664737488e+02 6.519756654310812e+02 6.635817187345000e+02 6.750790263840054e+02 6.635817187345000e+02 6.750790263840054e+02 6.864675883795979e+02
 6.977474047212779e+02 6.864675883795979e+02 6.977474047212779e+02 7.089184754090458e+02 7.199808004429018e+02 7.089184754090458e+02 7.199808004429018e+02 7.309343798228466e+02 7.417792135488804e+02 7.309343798228466e+02
 7.417792135488804e+02 7.525153016210038e+02 7.631426440392171e+02 7.525153016210038e+02 7.631426440392171e+02 -4.085326497777865e-01 -4.046067557923020e-01 -4.055300936786575e-01 -4.085326497777865e-01 -4.055300936786575e-01
 -3.956075972419906e-01 -3.787860441224314e-01 -3.956075972419906e-01 -3.787860441224314e-01 -3.550807249989097e-01 -3.550807249989097e-01 -3.244868790654457e-01 -3.244868790654457e-01 -3.065946914051254e-01 -2.865514396914803e-01
 -3.065946914051254e-01 -2.865514396914803e-01 -1.702994994230236e-01 3.991645130500299e+00 -1.702994994230236e-01 3.991645130500299e+00 1.035449045039871e+01 1.777696415829622e+01 1.035449045039871e+01 1.777696415829622e+01
 2.567653817705761e+01 2.567653817705761e+01 2.969960008751830e+01 3.375214899923199e+01 2.969960008751830e+01 3.375214899923199e+01 3.782126585422792e+01 3.985884754397088e+01 4.189767854287348e+01 4.393714339336528e+01
 4.597674935140052e+01 4.801610321707334e+01 5.005489225564791e+01 5.413003209177621e+01 5.820052024807040e+01 6.632495114479777e+01 3.782126585422792e+01 3.985884754397088e+01 4.189767854287348e+01 4.393714339336528e+01
 4.597674935140052e+01 4.801610321707334e+01 5.005489225564791e+01 5.413003209177621e+01 5.820052024807040e+01 6.632495114479777e+01 8.249754060355235e+01 9.856210164664928e+01 8.249754060355235e+01 9.856210164664928e+01
 1.145179767917567e+02 1.303651103594927e+02 1.145179767917567e+02 1.303651103594927e+02 1.461034985010239e+02 1.617331409990473e+02 1.461034985010239e+02 1.617331409990473e+02 1.772540378435372e+02 1.926661890341156e+02
 1.772540378435372e+02 1.926661890341156e+02 2.079695945707712e+02 2.231642544535037e+02 2.079695945707712e+02 2.231642544535037e+02 2.382501686823136e+02 2.532273372572008e+02 2.382501686823136e+02 2.532273372572008e+02
 2.680957601781658e+02 2.828554374452087e+02 2.680957601781658e+02 2.828554374452087e+02 2.975063690583298e+02 3.120485550175291e+02 2.975063690583298e+02 3.120485550175291e+02 3.264819953228072e+02 3.408066899741640e+02
 3.264819953228072e+02 3.408066899741640e+02 3.550226389716000e+02 3.691298423151153e+02 3.550226389716000e+02 3.691298423151153e+02 3.831283000047102e+02 3.970180120403850e+02 3.831283000047102e+02 3.970180120403850e+02
 4.107989784221398e+02 4.244711991499751e+02 4.107989784221398e+02 4.244711991499751e+02 4.380346742238909e+02 4.514894036438877e+02 4.380346742238909e+02 4.514894036438877e+02 4.648353874099657e+02 4.780726255221251e+02
 4.648353874099657e+02 4.780726255221251e+02 4.912011179803663e+02 5.042208647846896e+02 4.912011179803663e+02 5.042208647846896e+02 5.171318659350952e+02 5.299341214315833e+02 5.171318659350952e+02 5.299341214315833e+02
 5.426276312741546e+02 5.552123954628090e+02 5.426276312741546e+02 5.552123954628090e+02 5.676884139975471e+02 5.800556868783690e+02 5.676884139975471e+02 5.800556868783690e+02 5.923142141052751e+02 6.044639956782659e+02
 5.923142141052751e+02 6.044639956782659e+02 6.165050315973416e+02 6.284373218625024e+02 6.165050315973416e+02 6.284373218625024e+02 6.402608664737488e+02 6.519756654310812e+02 6.402608664737488e+02 6.519756654310812e+02
 6.635817187345000e+02 6.750790263840054e+02 6.635817187345000e+02 6.750790263840054e+02 6.864675883795979e+02 6.977474047212779e+02 6.864675883795979e+02 6.977474047212779e+02 7.089184754090458e+02 7.199808004429018e+02
 7.089184754090458e+02 7.199808004429018e+02 7.309343798228466e+02 7.417792135488804e+02 7.309343798228466e+02 7.417792135488804e+02 7.525153016210038e+02 7.631426440392171e+02 7.525153016210038e+02 7.631426440392171e+02
 7.736612408035209e+02 7.736612408035209e+02 7.840710919139154e+02 7.840710919139154e+02 7.736612408035209e+02 7.840710919139154e+02 7.943721973704013e+02 7.943721973704013e+02 8.045645571729790e+02 8.045645571729790e+02
 7.943721973704013e+02 8.045645571729790e+02 7.736612408035209e+02 7.840710919139154e+02 7.736612408035209e+02 7.840710919139154e+02 7.943721973704013e+02 8.045645571729790e+02 7.943721973704013e+02 8.045645571729790e+02
 8.146481713216488e+02 8.146481713216488e+02 8.246230398164116e+02 8.246230398164116e+02 8.146481713216488e+02 8.246230398164116e+02 8.344891626572676e+02 8.344891626572676e+02 8.442465398442173e+02 8.442465398442173e+02
 8.344891626572676e+02 8.442465398442173e+02 8.146481713216488e+02 8.246230398164116e+02 8.146481713216488e+02 8.246230398164116e+02 8.344891626572676e+02 8.442465398442173e+02 8.344891626572676e+02 8.442465398442173e+02
 8.538951713772612e+02 8.538951713772612e+02 8.634350572564002e+02 8.634350572564002e+02 8.538951713772612e+02 8.634350572564002e+02 8.728661974816346e+02 8.728661974816346e+02 8.821885920529649e+02 8.821885920529649e+02
 8.728661974816346e+02 8.821885920529649e+02 8.538951713772612e+02 8.634350572564002e+02 8.538951713772612e+02 8.634350572564002e+02 8.728661974816346e+02 8.821885920529649e+02 8.728661974816346e+02 8.821885920529649e+02
 8.914022409703917e+02 8.914022409703917e+02 9.005071442339158e+02 9.005071442339158e+02 8.914022409703917e+02 9.005071442339158e+02 9.095033018435373e+02 9.095033018435373e+02 9.183907137992576e+02 9.183907137992576e+02
 9.095033018435373e+02 9.183907137992576e+02 8.914022409703917e+02 9.005071442339158e+02 8.914022409703917e+02 9.005071442339158e+02 9.095033018435373e+02 9.183907137992576e+02 9.095033018435373e+02 9.183907137992576e+02
 9.271693801010767e+02 9.271693801010767e+02 9.358393007489955e+02 9.358393007489955e+02 9.271693801010767e+02 9.358393007489955e+02 9.444004757430146e+02 9.444004757430146e+02 9.528529050831348e+02 9.528529050831348e+02
 9.444004757430146e+02 9.528529050831348e+02 9.271693801010767e+02 9.358393007489955e+02 9.271693801010767e+02 9.358393007489955e+02 9.444004757430146e+02 9.528529050831348e+02 9.444004757430146e+02 9.528529050831348e+02
 9.611965887693567e+02 9.611965887693567e+02 9.694315268016811e+02 9.694315268016811e+02 9.611965887693567e+02 9.694315268016811e+02 9.775577191801084e+02 9.775577191801084e+02 9.855751659046399e+02 9.855751659046399e+02
 9.775577191801084e+02 9.855751659046399e+02 9.611965887693567e+02 9.694315268016811e+02 9.611965887693567e+02 9.694315268016811e+02 9.775577191801084e+02 9.855751659046399e+02 9.775577191801084e+02 9.855751659046399e+02
 9.934838669752761e+02 9.934838669752761e+02 1.001283822392018e+03 1.001283822392018e+03 9.934838669752761e+02 1.001283822392018e+03 1.008975032154866e+03 1.008975032154866e+03 1.016557496263822e+03 1.016557496263822e+03
 1.008975032154866e+03 1.016557496263822e+03 9.934838669752761e+02 1.001283822392018e+03 9.934838669752761e+02 1.001283822392018e+03 1.008975032154866e+03 1.016557496263822e+03 1.008975032154866e+03 1.016557496263822e+03
 1.024031214718885e+03 1.024031214718885e+03 1.031396187520058e+03 1.031396187520058e+03 1.024031214718885e+03 1.031396187520058e+03 1.038652414667340e+03 1.038652414667340e+03 1.045799896160733e+03 1.045799896160733e+03
 1.038652414667340e+03 1.045799896160733e+03 1.024031214718885e+03 1.031396187520058e+03 1.024031214718885e+03 1.031396187520058e+03 1.038652414667340e+03 1.045799896160733e+03 1.038652414667340e+03 1.045799896160733e+03
 7.736612408035209e+02 7.840710919139154e+02 7.736612408035209e+02 7.840710919139154e+02 7.943721973704013e+02 8.045645571729790e+02 7.943721973704013e+02 8.045645571729790e+02 8.146481713216488e+02 8.246230398164116e+02
 8.146481713216488e+02 8.246230398164116e+02 8.344891626572676e+02 8.442465398442173e+02 8.344891626572676e+02 8.442465398442173e+02 8.538951713772612e+02 8.634350572564002e+02 8.538951713772612e+02 8.634350572564002e+02
 8.728661974816346e+02 8.821885920529649e+02 8.728661974816346e+02 8.821885920529649e+02 8.914022409703917e+02 9.005071442339158e+02 8.914022409703917e+02 9.005071442339158e+02 9.095033018435373e+02 9.183907137992576e+02
 9.095033018435373e+02 9.183907137992576e+02 9.271693801010767e+02 9.358393007489955e+02 9.271693801010767e+02 9.358393007489955e+02 9.444004757430146e+02 9.528529050831348e+02 9.444004757430146e+02 9.528529050831348e+02
 9.611965887693567e+02 9.694315268016811e+02 9.611965887693567e+02 9.694315268016811e+02 9.775577191801084e+02 9.855751659046399e+02 9.775577191801084e+02 9.855751659046399e+02 9.934838669752761e+02 1.001283822392018e+03
 9.934838669752761e+02 1.001283822392018e+03 1.008975032154866e+03 1.016557496263822e+03 1.008975032154866e+03 1.016557496263822e+03 1.024031214718885e+03 1.031396187520058e+03 1.024031214718885e+03 1.031396187520058e+03
 1.038652414667340e+03 1.045799896160733e+03 1.038652414667340e+03 1.045799896160733e+03 7.736612408035209e+02 7.840710919139154e+02 7.736612408035209e+02 7.840710919139154e+02 7.943721973704013e+02 8.045645571729790e+02
 7.943721973704013e+02 8.045645571729790e+02 8.146481713216488e+02 8.246230398164116e+02 8.146481713216488e+02 8.246230398164116e+02 8.344891626572676e+02 8.442465398442173e+02 8.344891626572676e+02 8.442465398442173e+02
 8.538951713772612e+02 8.634350572564002e+02 8.538951713772612e+02 8.634350572564002e+02 8.728661974816346e+02 8.821885920529649e+02 8.728661974816346e+02 8.821885920529649e+02 8.914022409703917e+02 9.005071442339158e+02
 8.914022409703917e+02 9.005071442339158e+02 9.095033018435373e+02 9.183907137992576e+02 9.095033018435373e+02 9.183907137992576e+02 9.271693801010767e+02 9.358393007489955e+02 9.271693801010767e+02 9.358393007489955e+02
 9.444004757430146e+02 9.528529050831348e+02 9.444004757430146e+02 9.528529050831348e+02 9.611965887693567e+02 9.694315268016811e+02 9.611965887693567e+02 9.694315268016811e+02 9.775577191801084e+02 9.855751659046399e+02
 9.775577191801084e+02 9.855751659046399e+02 9.934838669752761e+02 1.001283822392018e+03 9.934838669752761e+02 1.001283822392018e+03 1.008975032154866e+03 1.016557496263822e+03 1.008975032154866e+03 1.016557496263822e+03
 1.024031214718885e+03 1.031396187520058e+03 1.024031214718885e+03 1.031396187520058e+03 1.038652414667340e+03 1.045799896160733e+03 1.038652414667340e+03 1.045799896160733e+03 1.052838632000238e+03 1.052838632000238e+03
 1.059768622185857e+03 1.059768622185857e+03 1.052838632000238e+03 1.059768622185857e+03 1.066589866717589e+03 1.066589866717589e+03 1.073302365595436e+03 1.073302365595436e+03 1.066589866717589e+03 1.073302365595436e+03
 1.052838632000238e+03 1.059768622185857e+03 1.052838632000238e+03 1.059768622185857e+03 1.066589866717589e+03 1.073302365595436e+03 1.066589866717589e+03 1.073302365595436e+03 1.079906118819400e+03 1.079906118819400e+03
 1.086401126389480e+03 1.086401126389480e+03 1.079906118819400e+03 1.086401126389480e+03 1.092787388305680e+03 1.092787388305680e+03 1.099064904567998e+03 1.099064904567998e+03 1.092787388305680e+03 1.099064904567998e+03
 1.079906118819400e+03 1.086401126389480e+03 1.079906118819400e+03 1.086401126389480e+03 1.092787388305680e+03 1.099064904567998e+03 1.092787388305680e+03 1.099064904567998e+03 1.105233675176439e+03 1.105233675176439e+03
 1.111293700131001e+03 1.111293700131001e+03 1.105233675176439e+03 1.111293700131001e+03 1.117244979431687e+03 1.117244979431687e+03 1.123087513078499e+03 1.123087513078499e+03 1.117244979431687e+03 1.123087513078499e+03
 1.105233675176439e+03 1.111293700131001e+03 1.105233675176439e+03 1.111293700131001e+03 1.117244979431687e+03 1.123087513078499e+03 1.117244979431687e+03 1.123087513078499e+03 1.128821301071437e+03 1.128821301071437e+03
 1.134446343410503e+03 1.134446343410503e+03 1.128821301071437e+03 1.134446343410503e+03 1.139962640095700e+03 1.139962640095700e+03 1.145370191127028e+03 1.145370191127028e+03 1.139962640095700e+03 1.145370191127028e+03
 1.128821301071437e+03 1.134446343410503e+03 1.128821301071437e+03 1.134446343410503e+03 1.139962640095700e+03 1.145370191127028e+03 1.139962640095700e+03 1.145370191127028e+03 1.052838632000238e+03 1.059768622185857e+03
 1.052838632000238e+03 1.059768622185857e+03 1.066589866717589e+03 1.073302365595436e+03 1.066589866717589e+03 1.073302365595436e+03 1.079906118819400e+03 1.086401126389480e+03 1.079906118819400e+03 1.086401126389480e+03
 1.092787388305680e+03 1.099064904567998e+03 1.092787388305680e+03 1.099064904567998e+03 1.105233675176439e+03 1.111293700131001e+03 1.105233675176439e+03 1.111293700131001e+03 1.117244979431687e+03 1.123087513078499e+03
 1.117244979431687e+03 1.123087513078499e+03 1.128821301071437e+03 1.134446343410503e+03 1.128821301071437e+03 1.134446343410503e+03 1.139962640095700e+03 1.145370191127028e+03 1.139962640095700e+03 1.145370191127028e+03
 1.052838632000238e+03 1.059768622185857e+03 1.052838632000238e+03 1.059768622185857e+03 1.066589866717589e+03 1.073302365595436e+03 1.066589866717589e+03 1.073302365595436e+03 1.079906118819400e+03 1.086401126389480e+03
 1.079906118819400e+03 1.086401126389480e+03 1.092787388305680e+03 1.099064904567998e+03 1.092787388305680e+03 1.099064904567998e+03 1.105233675176439e+03 1.111293700131001e+03 1.105233675176439e+03 1.111293700131001e+03
 1.117244979431687e+03 1.123087513078499e+03 1.117244979431687e+03 1.123087513078499e+03 1.128821301071437e+03 1.134446343410503e+03 1.128821301071437e+03 1.134446343410503e+03 1.139962640095700e+03 1.145370191127028e+03
 1.139962640095700e+03 1.145370191127028e+03 1.150668996504489e+03 1.150668996504489e+03 1.155859056228085e+03 1.155859056228085e+03 1.150668996504489e+03 1.155859056228085e+03 1.160940370297818e+03 1.160940370297818e+03
 1.165912938713690e+03 1.165912938713690e+03 1.160940370297818e+03 1.165912938713690e+03 1.150668996504489e+03 1.155859056228085e+03 1.150668996504489e+03 1.155859056228085e+03 1.160940370297818e+03 1.165912938713690e+03
 1.160940370297818e+03 1.165912938713690e+03 1.170776761475703e+03 1.170776761475703e+03 1.175531838583859e+03 1.175531838583859e+03 1.170776761475703e+03 1.175531838583859e+03 1.180178170038160e+03 1.180178170038160e+03
 1.184715755838598e+03 1.184715755838598e+03 1.180178170038160e+03 1.184715755838598e+03 1.170776761475703e+03 1.175531838583859e+03 1.170776761475703e+03 1.175531838583859e+03 1.180178170038160e+03 1.184715755838598e+03
 1.180178170038160e+03 1.184715755838598e+03 1.150668996504489e+03 1.155859056228085e+03 1.150668996504489e+03 1.155859056228085e+03 1.160940370297818e+03 1.165912938713690e+03 1.160940370297818e+03 1.165912938713690e+03
 1.170776761475703e+03 1.175531838583859e+03 1.170776761475703e+03 1.175531838583859e+03 1.180178170038160e+03 1.184715755838598e+03 1.180178170038160e+03 1.184715755838598e+03 1.150668996504489e+03 1.155859056228085e+03
 1.150668996504489e+03 1.155859056228085e+03 1.160940370297818e+03 1.165912938713690e+03 1.160940370297818e+03 1.165912938713690e+03 1.170776761475703e+03 1.175531838583859e+03 1.170776761475703e+03 1.175531838583859e+03
 1.180178170038160e+03 1.184715755838598e+03 1.180178170038160e+03 1.184715755838598e+03 1.189144595965733e+03 1.189144595965733e+03 1.189144595965733e+03 1.193464676775683e+03 1.193464676775683e+03 1.193464676775683e+03
 1.195582435749184e+03 1.195582435749184e+03 1.195582435749184e+03 1.196626488629955e+03 1.196626488629955e+03 1.197653752740094e+03 1.197653752740094e+03 1.196626488629955e+03 1.197653752740094e+03 1.198643604227457e+03
 1.198643604227457e+03 1.199537837972548e+03 1.199537837972548e+03 1.198643604227457e+03 1.199537837972548e+03 1.200181290447870e+03 1.200181290447870e+03 1.200277005018945e+03 1.200277005018945e+03 1.200181290447870e+03
 1.200277005018945e+03 1.189144595965733e+03 1.189144595965733e+03 1.193464676775683e+03 1.193464676775683e+03 1.195582435749184e+03 1.195582435749184e+03 1.196626488629955e+03 1.197653752740094e+03 1.196626488629955e+03