DF-ISE text

Info {
  version = 1.0
  type    = dataset
  dimension   = 2
  nb_vertices = 1377
  nb_edges    = 3808
  nb_faces    = 0
  nb_elements = 2448
  nb_regions  = 3
  datasets    = [ "ElectrostaticPotential" "eDensity" "hDensity" "LatticeTemperature" "EffectiveIntrinsicDensity" "IntrinsicDensity" "eEquilibriumDensity" "hEquilibriumDensity" "BandGap" "EffectiveBandGap" "BandgapNarrowing" "ValenceBandEnergy" "ConductionBandEnergy" "hEffectiveStateDensity" "eEffectiveStateDensity" "eQuasiFermiEnergy" "hQuasiFermiEnergy" "ElectronAffinity" "TotalCurrentDensity" "eCurrentDensity" "hCurrentDensity" "eMobility" "hMobility" "eVelocity" "hVelocity" "ElectricField" "eQuasiFermiPotential" "hQuasiFermiPotential" "SpaceCharge" "eGradQuasiFermi" "hGradQuasiFermi" "eEparallel" "hEparallel" "eEnormal" "hEnormal" "srhRecombination" "Band2BandGeneration" "AugerRecombination" "RadiativeRecombination" "ImpactIonization" "eImpactIonization" "hImpactIonization" "eAlphaAvalanche" "hAlphaAvalanche" "TotalRecombination" "eLifetime" "hLifetime" "SurfaceRecombination" "DopingConcentration" "DonorConcentration" "AcceptorConcentration" "DonorPlusConcentration" "AccepMinusConcentration" "QuasiFermiPotential" ]
  functions   = [ ElectrostaticPotential eDensity hDensity LatticeTemperature EffectiveIntrinsicDensity IntrinsicDensity eEquilibriumDensity hEquilibriumDensity BandGap EffectiveBandGap BandgapNarrowing ValenceBandEnergy ConductionBandEnergy hEffectiveStateDensity eEffectiveStateDensity eQuasiFermiEnergy hQuasiFermiEnergy ElectronAffinity TotalCurrentDensity eCurrentDensity hCurrentDensity eMobility hMobility eVelocity hVelocity ElectricField eQuasiFermiPotential hQuasiFermiPotential SpaceCharge eGradQuasiFermi hGradQuasiFermi eEparallel hEparallel eEnormal hEnormal srhRecombination Band2BandGeneration AugerRecombination RadiativeRecombination ImpactIonization eImpactIonization hImpactIonization eAlphaAvalanche hAlphaAvalanche TotalRecombination eLifetime hLifetime SurfaceRecombination DopingConcentration DonorConcentration AcceptorConcentration DonorPlusConcentration AccepMinusConcentration QuasiFermiPotential ]
}

Data {

  Dataset ("ElectrostaticPotential") {
    function  = ElectrostaticPotential
    type      = scalar
    dimension = 1
    location  = vertex
    validity  = [ "N-" ]
    Values (1377) {
 -3.929025422867252e-01 -3.897536145607370e-01 -3.929025422867252e-01 -3.904946896152473e-01 -3.904946896152473e-01 -3.929025422867252e-01 -3.897536145607370e-01 -3.904946896152473e-01 -3.825141781979099e-01 -3.825141781979099e-01
 -3.688725461312261e-01 -3.688725461312261e-01 -3.825141781979099e-01 -3.688725461312261e-01 -3.929025422867252e-01 -3.897536145607370e-01 -3.904946896152473e-01 -3.929025422867252e-01 -3.897536145607370e-01 -3.904946896152473e-01
 -3.825141781979099e-01 -3.688725461312261e-01 -3.825141781979099e-01 -3.688725461312261e-01 -3.490804778397595e-01 -3.490804778397595e-01 -3.490804778397595e-01 -3.209552019155510e-01 -3.209552019155510e-01 -3.209552019155510e-01
 -3.034844616144396e-01 -3.034844616144396e-01 -2.836585092906050e-01 -2.836585092906050e-01 -3.034844616144396e-01 -2.836585092906050e-01 -1.675242619384563e-01 -1.675242619384563e-01 3.994396682764141e+00 3.994396682764141e+00
 -1.675242619384562e-01 3.994396682764142e+00 -3.490804778397595e-01 -3.490804778397595e-01 -3.209552019155510e-01 -3.209552019155510e-01 -3.034844616144396e-01 -2.836585092906050e-01 -3.034844616144396e-01 -2.836585092906050e-01
 -1.675242619384564e-01 3.994396682764141e+00 -1.675242619384564e-01 3.994396682764141e+00 1.035721831744260e+01 1.035721831744260e+01 1.777966834012296e+01 1.777966834012296e+01 1.035721831744260e+01 1.777966834012296e+01
 2.567921867367038e+01 2.567921867367038e+01 2.567921867367038e+01 2.970226874152536e+01 2.970226874152536e+01 3.375480581063419e+01 3.375480581063419e+01 2.970226874152536e+01 3.375480581063419e+01 3.782391082302611e+01
 3.782391082302611e+01 3.782391082302611e+01 3.986148659146740e+01 3.986148659146740e+01 4.190031166906853e+01 4.190031166906853e+01 3.986148659146740e+01 4.190031166906853e+01 4.393977059825907e+01 4.393977059825907e+01
 4.597937063499328e+01 4.597937063499328e+01 4.393977059825907e+01 4.597937063499328e+01 4.801871857936528e+01 4.801871857936528e+01 5.005750169663924e+01 5.005750169663924e+01 4.801871857936528e+01 5.005750169663925e+01
 5.413262969016699e+01 5.413262969016699e+01 5.413262969016699e+01 5.820310600386147e+01 5.820310600386147e+01 5.820310600386148e+01 6.632751321539202e+01 6.632751321539202e+01 6.632751321539202e+01 1.035721831744260e+01
 1.777966834012296e+01 1.035721831744260e+01 1.777966834012296e+01 2.567921867367038e+01 2.567921867367038e+01 2.970226874152536e+01 3.375480581063419e+01 2.970226874152536e+01 3.375480581063419e+01 3.782391082302611e+01
 3.782391082302611e+01 3.986148659146740e+01 4.190031166906853e+01 3.986148659146740e+01 4.190031166906853e+01 4.393977059825907e+01 4.597937063499328e+01 4.393977059825907e+01 4.597937063499328e+01 4.801871857936528e+01
 5.005750169663924e+01 4.801871857936528e+01 5.005750169663924e+01 5.413262969016699e+01 5.413262969016699e+01 5.820310600386147e+01 5.820310600386147e+01 6.632751321539202e+01 6.632751321539202e+01 8.250005530376346e+01
 8.250005530376346e+01 9.856456897649134e+01 9.856456897649134e+01 8.250005530376346e+01 9.856456897649134e+01 1.145203967512439e+02 1.145203967512439e+02 1.303674829486394e+02 1.303674829486394e+02 1.145203967512439e+02
 1.303674829486394e+02 8.250005530376346e+01 8.250005530376346e+01 9.856456897649134e+01 9.856456897649134e+01 1.145203967512439e+02 1.303674829486394e+02 1.145203967512439e+02 1.303674829486394e+02 1.461058237198444e+02
 1.461058237198444e+02 1.617354188475562e+02 1.617354188475562e+02 1.461058237198444e+02 1.617354188475562e+02 1.772562683217490e+02 1.772562683217490e+02 1.926683721420451e+02 1.926683721420451e+02 1.772562683217490e+02
 1.926683721420451e+02 1.461058237198444e+02 1.617354188475562e+02 1.461058237198444e+02 1.617354188475562e+02 1.772562683217490e+02 1.926683721420451e+02 1.772562683217490e+02 1.926683721420451e+02 2.079717303084332e+02
 2.079717303084332e+02 2.231663428209132e+02 2.231663428209132e+02 2.079717303084332e+02 2.231663428209132e+02 2.382522096794854e+02 2.382522096794854e+02 2.532293308841503e+02 2.532293308841503e+02 2.382522096794854e+02
 2.532293308841503e+02 2.079717303084332e+02 2.231663428209132e+02 2.079717303084332e+02 2.231663428209132e+02 2.382522096794854e+02 2.532293308841503e+02 2.382522096794854e+02 2.532293308841503e+02 2.680977064349082e+02
 2.680977064349082e+02 2.828573363317592e+02 2.828573363317592e+02 2.680977064349082e+02 2.828573363317592e+02 2.975082205747040e+02 2.975082205747040e+02 3.120503591637426e+02 3.120503591637426e+02 2.975082205747040e+02
 3.120503591637426e+02 2.680977064349082e+02 2.828573363317592e+02 2.680977064349082e+02 2.828573363317592e+02 2.975082205747040e+02 3.120503591637426e+02 2.975082205747040e+02 3.120503591637426e+02 3.264837520988756e+02
 3.264837520988756e+02 3.408083993801033e+02 3.408083993801033e+02 3.264837520988756e+02 3.408083993801033e+02 3.550243010074261e+02 3.550243010074261e+02 3.691314569808443e+02 3.691314569808443e+02 3.550243010074261e+02
 3.691314569808443e+02 3.264837520988756e+02 3.408083993801033e+02 3.264837520988756e+02 3.408083993801033e+02 3.550243010074261e+02 3.691314569808443e+02 3.550243010074261e+02 3.691314569808443e+02 3.831298673003583e+02
 3.831298673003583e+02 3.970195319659685e+02 3.970195319659685e+02 3.831298673003583e+02 3.970195319659685e+02 4.108004509776752e+02 4.108004509776752e+02 4.244726243354789e+02 4.244726243354789e+02 4.108004509776752e+02
 4.244726243354789e+02 3.831298673003583e+02 3.970195319659685e+02 3.831298673003583e+02 3.970195319659685e+02 4.108004509776752e+02 4.244726243354789e+02 4.108004509776752e+02 4.244726243354789e+02 4.380360520393801e+02
 4.380360520393801e+02 4.514907340893790e+02 4.514907340893790e+02 4.380360520393801e+02 4.514907340893790e+02 4.648366704854761e+02 4.648366704854761e+02 4.780738612276718e+02 4.780738612276718e+02 4.648366704854761e+02
 4.780738612276718e+02 4.380360520393801e+02 4.514907340893790e+02 4.380360520393801e+02 4.514907340893790e+02 4.648366704854761e+02 4.780738612276718e+02 4.648366704854761e+02 4.780738612276718e+02 4.912023063159667e+02
 4.912023063159667e+02 5.042220057503609e+02 5.042220057503609e+02 4.912023063159667e+02 5.042220057503609e+02 5.171329595308551e+02 5.171329595308551e+02 5.299351676574498e+02 5.299351676574498e+02 5.171329595308551e+02
 5.299351676574498e+02 4.912023063159667e+02 5.042220057503609e+02 4.912023063159667e+02 5.042220057503609e+02 5.171329595308551e+02 5.299351676574498e+02 5.171329595308551e+02 5.299351676574498e+02 5.426286301301452e+02
 5.426286301301452e+02 5.552133469489420e+02 5.552133469489420e+02 5.426286301301452e+02 5.552133469489420e+02 5.676893181138406e+02 5.676893181138406e+02 5.800565436248414e+02 5.800565436248414e+02 5.676893181138406e+02
 5.800565436248414e+02 5.426286301301452e+02 5.552133469489420e+02 5.426286301301452e+02 5.552133469489420e+02 5.676893181138406e+02 5.800565436248414e+02 5.676893181138406e+02 5.800565436248414e+02 5.923150234819450e+02
 5.923150234819450e+02 6.044647576851520e+02 6.044647576851520e+02 5.923150234819450e+02 6.044647576851520e+02 6.165057462344628e+02 6.165057462344628e+02 6.284379891298777e+02 6.284379891298777e+02 6.165057462344628e+02
 6.284379891298777e+02 5.923150234819450e+02 6.044647576851520e+02 5.923150234819450e+02 6.044647576851520e+02 6.165057462344628e+02 6.284379891298777e+02 6.165057462344628e+02 6.284379891298777e+02 6.402614863713975e+02
 6.402614863713975e+02 6.519762379590227e+02 6.519762379590227e+02 6.402614863713975e+02 6.519762379590227e+02 6.635822438927539e+02 6.635822438927539e+02 6.750795041725914e+02 6.750795041725914e+02 6.635822438927539e+02
 6.750795041725914e+02 6.402614863713975e+02 6.519762379590227e+02 6.402614863713975e+02 6.519762379590227e+02 6.635822438927539e+02 6.750795041725914e+02 6.635822438927539e+02 6.750795041725914e+02 6.864680187985361e+02
 6.864680187985361e+02 6.977477877705885e+02 6.977477877705885e+02 6.864680187985361e+02 6.977477877705885e+02 7.089188110887490e+02 7.089188110887490e+02 7.199810887530183e+02 7.199810887530183e+02 7.089188110887490e+02
 7.199810887530183e+02 6.864680187985361e+02 6.977477877705885e+02 6.864680187985361e+02 6.977477877705885e+02 7.089188110887490e+02 7.199810887530183e+02 7.089188110887490e+02 7.199810887530183e+02 7.309346207633972e+02
 7.309346207633972e+02 7.417794071198861e+02 7.417794071198861e+02 7.309346207633972e+02 7.417794071198861e+02 7.525154478224857e+02 7.525154478224857e+02 7.631427428711968e+02 7.631427428711968e+02 7.525154478224857e+02
 7.631427428711968e+02 7.309346207633972e+02 7.417794071198861e+02 7.309346207633972e+02 7.417794071198861e+02 7.525154478224857e+02 7.631427428711968e+02 7.525154478224857e+02 7.631427428711968e+02 -3.929025422867252e-01
 -3.897536145607370e-01 -3.904946896152473e-01 -3.929025422867252e-01 -3.897536145607370e-01 -3.904946896152473e-01 -3.825141781979099e-01 -3.688725461312261e-01 -3.825141781979099e-01 -3.688725461312261e-01 -3.490804778397595e-01
 -3.490804778397595e-01 -3.209552019155510e-01 -3.209552019155510e-01 -3.034844616144396e-01 -2.836585092906050e-01 -3.034844616144396e-01 -2.836585092906050e-01 -1.675242619384565e-01 3.994396682764141e+00 -1.675242619384563e-01
 3.994396682764141e+00 1.035721831744260e+01 1.777966834012295e+01 1.035721831744260e+01 1.777966834012295e+01 2.567921867367038e+01 2.567921867367038e+01 2.970226874152536e+01 3.375480581063419e+01 2.970226874152535e+01
 3.375480581063419e+01 3.782391082302611e+01 3.782391082302610e+01 3.986148659146740e+01 4.190031166906853e+01 3.986148659146739e+01 4.190031166906852e+01 4.393977059825907e+01 4.597937063499328e+01 4.393977059825907e+01
 4.597937063499328e+01 4.801871857936528e+01 5.005750169663924e+01 4.801871857936528e+01 5.005750169663924e+01 5.413262969016699e+01 5.413262969016699e+01 5.820310600386147e+01 5.820310600386147e+01 6.632751321539202e+01
 6.632751321539202e+01 8.250005530376346e+01 8.250005530376346e+01 9.856456897649134e+01 9.856456897649134e+01 1.145203967512439e+02 1.303674829486394e+02 1.145203967512439e+02 1.303674829486394e+02 1.461058237198444e+02
 1.617354188475562e+02 1.461058237198444e+02 1.617354188475562e+02 1.772562683217490e+02 1.926683721420451e+02 1.772562683217490e+02 1.926683721420451e+02 2.079717303084332e+02 2.231663428209132e+02 2.079717303084332e+02
 2.231663428209132e+02 2.382522096794854e+02 2.532293308841503e+02 2.382522096794854e+02 2.532293308841503e+02 2.680977064349082e+02 2.828573363317592e+02 2.680977064349082e+02 2.828573363317592e+02 2.975082205747040e+02
 3.120503591637426e+02 2.975082205747040e+02 3.120503591637426e+02 3.264837520988756e+02 3.408083993801033e+02 3.264837520988756e+02 3.408083993801033e+02 3.550243010074261e+02 3.691314569808443e+02 3.550243010074261e+02
 3.691314569808443e+02 3.831298673003583e+02 3.970195319659685e+02 3.831298673003583e+02 3.970195319659685e+02 4.108004509776752e+02 4.244726243354789e+02 4.108004509776752e+02 4.244726243354789e+02 4.380360520393801e+02
 4.514907340893790e+02 4.380360520393801e+02 4.514907340893790e+02 4.648366704854761e+02 4.780738612276718e+02 4.648366704854761e+02 4.780738612276718e+02 4.912023063159667e+02 5.042220057503609e+02 4.912023063159667e+02
 5.042220057503609e+02 5.171329595308551e+02 5.299351676574498e+02 5.171329595308551e+02 5.299351676574498e+02 5.426286301301452e+02 5.552133469489420e+02 5.426286301301452e+02 5.552133469489420e+02 5.676893181138406e+02
 5.800565436248414e+02 5.676893181138406e+02 5.800565436248414e+02 5.923150234819450e+02 6.044647576851520e+02 5.923150234819450e+02 6.044647576851520e+02 6.165057462344628e+02 6.284379891298777e+02 6.165057462344628e+02
 6.284379891298777e+02 6.402614863713975e+02 6.519762379590227e+02 6.402614863713975e+02 6.519762379590227e+02 6.635822438927539e+02 6.750795041725914e+02 6.635822438927539e+02 6.750795041725914e+02 6.864680187985361e+02
 6.977477877705885e+02 6.864680187985361e+02 6.977477877705885e+02 7.089188110887490e+02 7.199810887530183e+02 7.089188110887490e+02 7.199810887530183e+02 7.309346207633972e+02 7.417794071198861e+02 7.309346207633972e+02
 7.417794071198861e+02 7.525154478224857e+02 7.631427428711968e+02 7.525154478224857e+02 7.631427428711968e+02 -3.929025422867252e-01 -3.897536145607370e-01 -3.904946896152473e-01 -3.929025422867252e-01 -3.904946896152473e-01
 -3.825141781979099e-01 -3.688725461312261e-01 -3.825141781979099e-01 -3.688725461312261e-01 -3.490804778397595e-01 -3.490804778397595e-01 -3.209552019155510e-01 -3.209552019155510e-01 -3.034844616144396e-01 -2.836585092906050e-01
 -3.034844616144396e-01 -2.836585092906050e-01 -1.675242619384565e-01 3.994396682764140e+00 -1.675242619384565e-01 3.994396682764140e+00 1.035721831744260e+01 1.777966834012295e+01 1.035721831744260e+01 1.777966834012295e+01
 2.567921867367038e+01 2.567921867367038e+01 2.970226874152536e+01 3.375480581063419e+01 2.970226874152536e+01 3.375480581063419e+01 3.782391082302610e+01 3.986148659146739e+01 4.190031166906852e+01 4.393977059825907e+01
 4.597937063499328e+01 4.801871857936528e+01 5.005750169663924e+01 5.413262969016699e+01 5.820310600386147e+01 6.632751321539202e+01 3.782391082302611e+01 3.986148659146739e+01 4.190031166906852e+01 4.393977059825907e+01
 4.597937063499328e+01 4.801871857936528e+01 5.005750169663924e+01 5.413262969016699e+01 5.820310600386147e+01 6.632751321539202e+01 8.250005530376346e+01 9.856456897649134e+01 8.250005530376346e+01 9.856456897649134e+01
 1.145203967512439e+02 1.303674829486394e+02 1.145203967512439e+02 1.303674829486394e+02 1.461058237198444e+02 1.617354188475562e+02 1.461058237198444e+02 1.617354188475562e+02 1.772562683217490e+02 1.926683721420451e+02
 1.772562683217490e+02 1.926683721420451e+02 2.079717303084332e+02 2.231663428209132e+02 2.079717303084332e+02 2.231663428209132e+02 2.382522096794854e+02 2.532293308841503e+02 2.382522096794854e+02 2.532293308841503e+02
 2.680977064349082e+02 2.828573363317592e+02 2.680977064349082e+02 2.828573363317592e+02 2.975082205747040e+02 3.120503591637426e+02 2.975082205747040e+02 3.120503591637426e+02 3.264837520988756e+02 3.408083993801033e+02
 3.264837520988756e+02 3.408083993801033e+02 3.550243010074261e+02 3.691314569808443e+02 3.550243010074261e+02 3.691314569808443e+02 3.831298673003583e+02 3.970195319659685e+02 3.831298673003583e+02 3.970195319659685e+02
 4.108004509776752e+02 4.244726243354789e+02 4.108004509776752e+02 4.244726243354789e+02 4.380360520393801e+02 4.514907340893790e+02 4.380360520393801e+02 4.514907340893790e+02 4.648366704854761e+02 4.780738612276718e+02
 4.648366704854761e+02 4.780738612276718e+02 4.912023063159667e+02 5.042220057503609e+02 4.912023063159667e+02 5.042220057503609e+02 5.171329595308551e+02 5.299351676574498e+02 5.171329595308551e+02 5.299351676574498e+02
 5.426286301301452e+02 5.552133469489420e+02 5.426286301301452e+02 5.552133469489420e+02 5.676893181138406e+02 5.800565436248414e+02 5.676893181138406e+02 5.800565436248414e+02 5.923150234819450e+02 6.044647576851520e+02
 5.923150234819450e+02 6.044647576851520e+02 6.165057462344628e+02 6.284379891298777e+02 6.165057462344628e+02 6.284379891298777e+02 6.402614863713975e+02 6.519762379590227e+02 6.402614863713975e+02 6.519762379590227e+02
 6.635822438927539e+02 6.750795041725914e+02 6.635822438927539e+02 6.750795041725914e+02 6.864680187985361e+02 6.977477877705885e+02 6.864680187985361e+02 6.977477877705885e+02 7.089188110887490e+02 7.199810887530183e+02
 7.089188110887490e+02 7.199810887530183e+02 7.309346207633972e+02 7.417794071198861e+02 7.309346207633972e+02 7.417794071198861e+02 7.525154478224857e+02 7.631427428711968e+02 7.525154478224857e+02 7.631427428711968e+02
 7.736612922660198e+02 7.736612922660198e+02 7.840710960069557e+02 7.840710960069557e+02 7.736612922660198e+02 7.840710960069557e+02 7.943721540940049e+02 7.943721540940049e+02 8.045644665271683e+02 8.045644665271683e+02
 7.943721540940049e+02 8.045644665271683e+02 7.736612922660198e+02 7.840710960069557e+02 7.736612922660198e+02 7.840710960069557e+02 7.943721540940049e+02 8.045644665271683e+02 7.943721540940049e+02 8.045644665271683e+02
 8.146480333064466e+02 8.146480333064466e+02 8.246228544318404e+02 8.246228544318404e+02 8.146480333064466e+02 8.246228544318404e+02 8.344889299033508e+02 8.344889299033508e+02 8.442462597209783e+02 8.442462597209783e+02
 8.344889299033508e+02 8.442462597209783e+02 8.146480333064466e+02 8.246228544318404e+02 8.146480333064466e+02 8.246228544318404e+02 8.344889299033508e+02 8.442462597209783e+02 8.344889299033508e+02 8.442462597209783e+02
 8.538948438847236e+02 8.538948438847236e+02 8.634346823945880e+02 8.634346823945880e+02 8.538948438847236e+02 8.634346823945880e+02 8.728657752505716e+02 8.728657752505716e+02 8.821881224526760e+02 8.821881224526760e+02
 8.728657752505716e+02 8.821881224526760e+02 8.538948438847236e+02 8.634346823945880e+02 8.538948438847236e+02 8.634346823945880e+02 8.728657752505716e+02 8.821881224526760e+02 8.728657752505716e+02 8.821881224526760e+02
 8.914017240009016e+02 8.914017240009016e+02 9.005065798952493e+02 9.005065798952493e+02 8.914017240009016e+02 9.005065798952493e+02 9.095026901357202e+02 9.095026901357202e+02 9.183900547223154e+02 9.183900547223154e+02
 9.095026901357202e+02 9.183900547223154e+02 8.914017240009016e+02 9.005065798952493e+02 8.914017240009016e+02 9.005065798952493e+02 9.095026901357202e+02 9.183900547223154e+02 9.095026901357202e+02 9.183900547223154e+02
 9.271686736550354e+02 9.271686736550354e+02 9.358385469338815e+02 9.358385469338815e+02 9.271686736550354e+02 9.358385469338815e+02 9.443996745588547e+02 9.443996745588547e+02 9.528520565299559e+02 9.528520565299559e+02
 9.443996745588547e+02 9.528520565299559e+02 9.271686736550354e+02 9.358385469338815e+02 9.271686736550354e+02 9.358385469338815e+02 9.443996745588547e+02 9.528520565299559e+02 9.443996745588547e+02 9.528520565299559e+02
 9.611956928471863e+02 9.611956928471863e+02 9.694305835105469e+02 9.694305835105469e+02 9.611956928471863e+02 9.694305835105469e+02 9.775567285200387e+02 9.775567285200387e+02 9.855741278756633e+02 9.855741278756633e+02
 9.775567285200387e+02 9.855741278756633e+02 9.611956928471863e+02 9.694305835105469e+02 9.611956928471863e+02 9.694305835105469e+02 9.775567285200387e+02 9.855741278756633e+02 9.775567285200387e+02 9.855741278756633e+02
 9.934827815774215e+02 9.934827815774215e+02 1.001282689625315e+03 1.001282689625315e+03 9.934827815774215e+02 1.001282689625315e+03 1.008973852019344e+03 1.008973852019344e+03 1.016556268759511e+03 1.016556268759511e+03
 1.008973852019344e+03 1.016556268759511e+03 9.934827815774215e+02 1.001282689625315e+03 9.934827815774215e+02 1.001282689625315e+03 1.008973852019344e+03 1.016556268759511e+03 1.008973852019344e+03 1.016556268759511e+03
 1.024029939845816e+03 1.024029939845816e+03 1.031394865278262e+03 1.031394865278262e+03 1.024029939845816e+03 1.031394865278262e+03 1.038651045056849e+03 1.038651045056849e+03 1.045798479181579e+03 1.045798479181579e+03
 1.038651045056849e+03 1.045798479181579e+03 1.024029939845816e+03 1.031394865278262e+03 1.024029939845816e+03 1.031394865278262e+03 1.038651045056849e+03 1.045798479181579e+03 1.038651045056849e+03 1.045798479181579e+03
 7.736612922660198e+02 7.840710960069557e+02 7.736612922660198e+02 7.840710960069557e+02 7.943721540940049e+02 8.045644665271683e+02 7.943721540940049e+02 8.045644665271683e+02 8.146480333064466e+02 8.246228544318404e+02
 8.146480333064466e+02 8.246228544318404e+02 8.344889299033508e+02 8.442462597209783e+02 8.344889299033508e+02 8.442462597209783e+02 8.538948438847236e+02 8.634346823945880e+02 8.538948438847236e+02 8.634346823945880e+02
 8.728657752505716e+02 8.821881224526760e+02 8.728657752505716e+02 8.821881224526760e+02 8.914017240009016e+02 9.005065798952493e+02 8.914017240009016e+02 9.005065798952493e+02 9.095026901357202e+02 9.183900547223154e+02
 9.095026901357202e+02 9.183900547223154e+02 9.271686736550354e+02 9.358385469338815e+02 9.271686736550354e+02 9.358385469338815e+02 9.443996745588547e+02 9.528520565299559e+02 9.443996745588547e+02 9.528520565299559e+02
 9.611956928471863e+02 9.694305835105469e+02 9.611956928471863e+02 9.694305835105469e+02 9.775567285200387e+02 9.855741278756633e+02 9.775567285200387e+02 9.855741278756633e+02 9.934827815774215e+02 1.001282689625315e+03
 9.934827815774215e+02 1.001282689625315e+03 1.008973852019344e+03 1.016556268759511e+03 1.008973852019344e+03 1.016556268759511e+03 1.024029939845816e+03 1.031394865278262e+03 1.024029939845816e+03 1.031394865278262e+03
 1.038651045056849e+03 1.045798479181579e+03 1.038651045056849e+03 1.045798479181579e+03 7.736612922660198e+02 7.840710960069557e+02 7.736612922660198e+02 7.840710960069557e+02 7.943721540940049e+02 8.045644665271683e+02
 7.943721540940049e+02 8.045644665271683e+02 8.146480333064466e+02 8.246228544318404e+02 8.146480333064466e+02 8.246228544318404e+02 8.344889299033508e+02 8.442462597209783e+02 8.344889299033508e+02 8.442462597209783e+02
 8.538948438847236e+02 8.634346823945880e+02 8.538948438847236e+02 8.634346823945880e+02 8.728657752505716e+02 8.821881224526760e+02 8.728657752505716e+02 8.821881224526760e+02 8.914017240009016e+02 9.005065798952493e+02
 8.914017240009016e+02 9.005065798952493e+02 9.095026901357202e+02 9.183900547223154e+02 9.095026901357202e+02 9.183900547223154e+02 9.271686736550354e+02 9.358385469338815e+02 9.271686736550354e+02 9.358385469338815e+02
 9.443996745588547e+02 9.528520565299559e+02 9.443996745588547e+02 9.528520565299559e+02 9.611956928471863e+02 9.694305835105469e+02 9.611956928471863e+02 9.694305835105469e+02 9.775567285200387e+02 9.855741278756633e+02
 9.775567285200387e+02 9.855741278756633e+02 9.934827815774215e+02 1.001282689625315e+03 9.934827815774215e+02 1.001282689625315e+03 1.008973852019344e+03 1.016556268759511e+03 1.008973852019344e+03 1.016556268759511e+03
 1.024029939845816e+03 1.031394865278262e+03 1.024029939845816e+03 1.031394865278262e+03 1.038651045056849e+03 1.045798479181579e+03 1.038651045056849e+03 1.045798479181579e+03 1.052837167652454e+03 1.052837167652454e+03
 1.059767110469475e+03 1.059767110469475e+03 1.052837167652454e+03 1.059767110469475e+03 1.066588307632643e+03 1.066588307632643e+03 1.073300759141961e+03 1.073300759141961e+03 1.066588307632643e+03 1.073300759141961e+03
 1.052837167652454e+03 1.059767110469475e+03 1.052837167652454e+03 1.059767110469475e+03 1.066588307632643e+03 1.073300759141961e+03 1.066588307632643e+03 1.073300759141961e+03 1.079904464997430e+03 1.079904464997430e+03
 1.086399425199051e+03 1.086399425199051e+03 1.079904464997430e+03 1.086399425199051e+03 1.092785639746827e+03 1.092785639746827e+03 1.099063108640760e+03 1.099063108640760e+03 1.092785639746827e+03 1.099063108640760e+03
 1.079904464997430e+03 1.086399425199051e+03 1.079904464997430e+03 1.086399425199051e+03 1.092785639746827e+03 1.099063108640760e+03 1.092785639746827e+03 1.099063108640760e+03 1.105231831880851e+03 1.105231831880851e+03
 1.111291809467102e+03 1.111291809467102e+03 1.105231831880851e+03 1.111291809467102e+03 1.117243041399516e+03 1.117243041399516e+03 1.123085527678094e+03 1.123085527678094e+03 1.117243041399516e+03 1.123085527678094e+03
 1.105231831880851e+03 1.111291809467102e+03 1.105231831880851e+03 1.111291809467102e+03 1.117243041399516e+03 1.123085527678094e+03 1.117243041399516e+03 1.123085527678094e+03 1.128819268302840e+03 1.128819268302840e+03
 1.134444263273755e+03 1.134444263273755e+03 1.128819268302840e+03 1.134444263273755e+03 1.139960512590841e+03 1.139960512590841e+03 1.145368016254102e+03 1.145368016254102e+03 1.139960512590841e+03 1.145368016254102e+03
 1.128819268302840e+03 1.134444263273755e+03 1.128819268302840e+03 1.134444263273755e+03 1.139960512590841e+03 1.145368016254102e+03 1.139960512590841e+03 1.145368016254102e+03 1.052837167652454e+03 1.059767110469475e+03
 1.052837167652454e+03 1.059767110469475e+03 1.066588307632643e+03 1.073300759141961e+03 1.066588307632643e+03 1.073300759141961e+03 1.079904464997430e+03 1.086399425199051e+03 1.079904464997430e+03 1.086399425199051e+03
 1.092785639746827e+03 1.099063108640760e+03 1.092785639746827e+03 1.099063108640760e+03 1.105231831880851e+03 1.111291809467102e+03 1.105231831880851e+03 1.111291809467102e+03 1.117243041399516e+03 1.123085527678094e+03
 1.117243041399516e+03 1.123085527678094e+03 1.128819268302840e+03 1.134444263273755e+03 1.128819268302840e+03 1.134444263273755e+03 1.139960512590841e+03 1.145368016254102e+03 1.139960512590841e+03 1.145368016254102e+03
 1.052837167652454e+03 1.059767110469475e+03 1.052837167652454e+03 1.059767110469475e+03 1.066588307632643e+03 1.073300759141961e+03 1.066588307632643e+03 1.073300759141961e+03 1.079904464997430e+03 1.086399425199051e+03
 1.079904464997430e+03 1.086399425199051e+03 1.092785639746827e+03 1.099063108640760e+03 1.092785639746827e+03 1.099063108640760e+03 1.105231831880851e+03 1.111291809467102e+03 1.105231831880851e+03 1.111291809467102e+03
 1.117243041399516e+03 1.123085527678094e+03 1.117243041399516e+03 1.123085527678094e+03 1.128819268302840e+03 1.134444263273755e+03 1.128819268302840e+03 1.134444263273755e+03 1.139960512590841e+03 1.145368016254102e+03
 1.139960512590841e+03 1.145368016254102e+03 1.150666774263540e+03 1.150666774263540e+03 1.155856786619157e+03 1.155856786619157e+03 1.150666774263540e+03 1.155856786619157e+03 1.160938053320957e+03 1.160938053320957e+03
 1.165910574368942e+03 1.165910574368942e+03 1.160938053320957e+03 1.165910574368942e+03 1.150666774263540e+03 1.155856786619157e+03 1.150666774263540e+03 1.155856786619157e+03 1.160938053320957e+03 1.165910574368942e+03
 1.160938053320957e+03 1.165910574368942e+03 1.170774349763116e+03 1.170774349763116e+03 1.175529379503482e+03 1.175529379503482e+03 1.170774349763116e+03 1.175529379503482e+03 1.180175663590044e+03 1.180175663590044e+03
 1.184713202022792e+03 1.184713202022792e+03 1.180175663590044e+03 1.184713202022792e+03 1.170774349763116e+03 1.175529379503482e+03 1.170774349763116e+03 1.175529379503482e+03 1.180175663590044e+03 1.184713202022792e+03
 1.180175663590044e+03 1.184713202022792e+03 1.150666774263540e+03 1.155856786619157e+03 1.150666774263540e+03 1.155856786619157e+03 1.160938053320957e+03 1.165910574368942e+03 1.160938053320957e+03 1.165910574368942e+03
 1.170774349763116e+03 1.175529379503482e+03 1.170774349763116e+03 1.175529379503482e+03 1.180175663590044e+03 1.184713202022792e+03 1.180175663590044e+03 1.184713202022792e+03 1.150666774263540e+03 1.155856786619157e+03
 1.150666774263540e+03 1.155856786619157e+03 1.160938053320957e+03 1.165910574368942e+03 1.160938053320957e+03 1.165910574368942e+03 1.170774349763116e+03 1.175529379503482e+03 1.170774349763116e+03 1.175529379503482e+03
 1.180175663590044e+03 1.184713202022792e+03 1.180175663590044e+03 1.184713202022792e+03 1.189141994782291e+03 1.189141994782291e+03 1.189141994782291e+03 1.193462028224658e+03 1.193462028224658e+03 1.193462028224658e+03
 1.195579763514389e+03 1.195579763514389e+03 1.195579763514389e+03 1.196623804553280e+03 1.196623804553280e+03 1.197651056821541e+03 1.197651056821541e+03 1.196623804553280e+03 1.197651056821541e+03 1.198640896467031e+03
 1.198640896467031e+03 1.199535118370254e+03 1.199535118370254e+03 1.198640896467031e+03 1.199535118370254e+03 1.200178559003713e+03 1.200178559003713e+03 1.200274168694605e+03 1.200274168694605e+03 1.200178559003713e+03
 1.200274168694605e+03 1.189141994782291e+03 1.189141994782291e+03 1.193462028224658e+03 1.193462028224658e+03 1.195579763514389e+03 1.195579763514389e+03 1.196623804553280e+03 1.197651056821541e+03 1.196623804553280e+03