DF-ISE text

Info {
  version = 1.0
  type    = dataset
  dimension   = 2
  nb_vertices = 2543
  nb_edges    = 7430
  nb_faces    = 0
  nb_elements = 4920
  nb_regions  = 4
  datasets    = [ "ElectrostaticPotential" "eDensity" "hDensity" "LatticeTemperature" "EffectiveIntrinsicDensity" "IntrinsicDensity" "eEquilibriumDensity" "hEquilibriumDensity" "BandGap" "EffectiveBandGap" "BandgapNarrowing" "ValenceBandEnergy" "ConductionBandEnergy" "hEffectiveStateDensity" "eEffectiveStateDensity" "eQuasiFermiEnergy" "hQuasiFermiEnergy" "ElectronAffinity" "TotalCurrentDensity" "eCurrentDensity" "hCurrentDensity" "eMobility" "hMobility" "eVelocity" "hVelocity" "ElectricField" "eQuasiFermiPotential" "hQuasiFermiPotential" "SpaceCharge" "eGradQuasiFermi" "hGradQuasiFermi" "eEparallel" "hEparallel" "eEnormal" "hEnormal" "srhRecombination" "Band2BandGeneration" "AugerRecombination" "RadiativeRecombination" "ImpactIonization" "eImpactIonization" "hImpactIonization" "eAlphaAvalanche" "hAlphaAvalanche" "TotalRecombination" "eLifetime" "hLifetime" "SurfaceRecombination" "DopingConcentration" "DonorConcentration" "AcceptorConcentration" "DonorPlusConcentration" "AccepMinusConcentration" "QuasiFermiPotential" ]
  functions   = [ ElectrostaticPotential eDensity hDensity LatticeTemperature EffectiveIntrinsicDensity IntrinsicDensity eEquilibriumDensity hEquilibriumDensity BandGap EffectiveBandGap BandgapNarrowing ValenceBandEnergy ConductionBandEnergy hEffectiveStateDensity eEffectiveStateDensity eQuasiFermiEnergy hQuasiFermiEnergy ElectronAffinity TotalCurrentDensity eCurrentDensity hCurrentDensity eMobility hMobility eVelocity hVelocity ElectricField eQuasiFermiPotential hQuasiFermiPotential SpaceCharge eGradQuasiFermi hGradQuasiFermi eEparallel hEparallel eEnormal hEnormal srhRecombination Band2BandGeneration AugerRecombination RadiativeRecombination ImpactIonization eImpactIonization hImpactIonization eAlphaAvalanche hAlphaAvalanche TotalRecombination eLifetime hLifetime SurfaceRecombination DopingConcentration DonorConcentration AcceptorConcentration DonorPlusConcentration AccepMinusConcentration QuasiFermiPotential ]
}

Data {

  Dataset ("ElectrostaticPotential") {
    function  = ElectrostaticPotential
    type      = scalar
    dimension = 1
    location  = vertex
    validity  = [ "N-" ]
    Values (2543) {
 3.025674909478129e-01 3.008897648651492e-01 3.025810600506592e-01 3.079616616876257e-01 3.079895757732753e-01 3.025154664126234e-01 3.008897648651492e-01 3.078602093558993e-01 3.168689708233622e-01 3.169152902339598e-01
 3.287518225841197e-01 3.288277465276400e-01 3.167097398244314e-01 3.285032812967434e-01 3.023667045456457e-01 3.008897648651492e-01 3.076107664864268e-01 3.016607868756233e-01 2.998967779442265e-01 3.069973582026068e-01
 3.163680763625234e-01 3.280220281947123e-01 3.157315407379994e-01 3.272486610293450e-01 3.422758988974105e-01 3.424015662368630e-01 3.549565834603373e-01 3.551455131967982e-01 3.418808949772309e-01 3.543803999256427e-01
 3.633154618205283e-01 3.635430230717688e-01 3.626335369225478e-01 3.656570858394399e-01 3.658897001758972e-01 3.671207978329427e-01 3.673516254123257e-01 3.649636979613426e-01 3.664353597888528e-01 3.411730903843889e-01
 3.534027508218175e-01 3.401351067446332e-01 3.520510985622542e-01 3.615109824675677e-01 3.600054306901024e-01 3.638323114493273e-01 3.653238413032859e-01 3.623273312929036e-01 3.638532302874266e-01 3.009709590819095e-01
 2.991721264409336e-01 2.990109747425573e-01 2.985636263559255e-01 3.003499079723057e-01 3.063176231795113e-01 3.025683440805975e-01 3.056438174570625e-01 3.149805354840854e-01 3.095373105754098e-01 3.141848437785550e-01
 3.263131001790784e-01 3.194855511523583e-01 3.252865096366552e-01 2.987132099794643e-01 2.982692031437295e-01 2.983001169143036e-01 2.981953706882407e-01 2.986148306786924e-01 3.000416853680936e-01 2.998797757415283e-01
 3.022427554818801e-01 3.052932531223587e-01 3.020008711332973e-01 3.049739938154213e-01 2.992578113537377e-01 2.991803241370513e-01 3.046305764497289e-01 3.046464044552863e-01 3.045847809536822e-01 2.994944654128860e-01
 3.045138231616572e-01 3.044254198798767e-01 2.999018084221634e-01 3.004958455938503e-01 3.042377892633640e-01 3.041173289021206e-01 3.129010947467855e-01 3.129759880236619e-01 3.322203484668236e-01 3.324593150053080e-01
 3.126809784551350e-01 3.319248273226094e-01 3.315174893426883e-01 3.123289239365264e-01 3.310038034136090e-01 3.303916840785059e-01 3.118657542367000e-01 3.289072206380248e-01 3.107159887018521e-01 3.251985455170187e-01
 3.094750053902100e-01 3.231579604191418e-01 3.211114544693172e-01 3.500205370552909e-01 3.503908807201993e-01 3.495607503054473e-01 3.489230078988471e-01 3.481135157421286e-01 3.471405210991946e-01 3.447478926161811e-01
 3.715565236711594e-01 3.719623343802252e-01 3.710489576485893e-01 3.703374028384486e-01 3.694220163603234e-01 3.683024138514068e-01 3.654561241965133e-01 3.386027961035879e-01 3.574808353259895e-01 3.351520223599113e-01
 3.525631787578743e-01 3.334025459443091e-01 3.316633382746200e-01 3.499552514095025e-01 3.472916435976673e-01 3.907843386157720e-01 3.911385582509155e-01 3.897157408306641e-01 3.879149973096614e-01 3.853526341740638e-01
 4.062779803923274e-01 4.065822508085324e-01 4.053598607315428e-01 4.038139103874267e-01 4.016143966451065e-01 3.777903556677293e-01 3.950958325617068e-01 3.727263940615998e-01 3.906644754252416e-01 3.698754622333736e-01
 3.668250612079882e-01 3.853590976473774e-01 3.023099469692136e-01 3.041637345677617e-01 3.044618419870806e-01 3.050285904531906e-01 3.050711712005459e-01 3.060210861223631e-01 3.083817419449611e-01 3.191332205403530e-01
 3.172848951494511e-01 3.076259770504295e-01 3.156120936442681e-01 3.141475201206179e-01 3.299500810982506e-01 3.282789178792722e-01 3.446081525513012e-01 3.419403647029735e-01 3.251106577975237e-01 3.393212471403020e-01
 3.367810902493795e-01 3.635956804608343e-01 3.602179570320199e-01 3.791203217348609e-01 3.567332859371677e-01 3.531928940067439e-01 3.756440319214105e-01 3.719394937216663e-01 3.222355279364244e-01 3.343427458230623e-01
 3.320260587607383e-01 3.298421059146675e-01 3.278021109121565e-01 3.496541422850886e-01 3.461753325910209e-01 3.680289167384587e-01 3.639500878811964e-01 3.428100711524114e-01 3.396026694232840e-01 3.597589170609442e-01
 3.555284414326917e-01 3.129106827958634e-01 3.119123489585177e-01 3.111543652709073e-01 3.106327030551427e-01 3.241638001481173e-01 3.211110526897808e-01 3.365854893844432e-01 3.337801749546052e-01 3.513411068391576e-01
 3.472801221458656e-01 3.311960326293127e-01 3.288358148557355e-01 3.434178442694138e-01 3.398082838387070e-01 3.186166927248906e-01 3.247682114512799e-01 3.364843814256464e-01 3.334611594698829e-01 3.166399721257551e-01
 3.307366403014315e-01 3.283035572257079e-01 3.091530760214111e-01 3.087659793234733e-01 3.137564556381288e-01 3.133062430643550e-01 3.190002166331319e-01 3.184841082507513e-01 3.247293060100230e-01 3.212648973730222e-01
 3.241409607778236e-01 3.073156191274950e-01 3.089355986921418e-01 3.108500625284147e-01 3.130224743120865e-01 3.102605945890583e-01 3.151343417602196e-01 3.140531986735944e-01 3.242420500960957e-01 3.211276467616011e-01
 3.106920166050078e-01 3.129850903090889e-01 3.188147503712496e-01 3.171745378139624e-01 3.117972146181200e-01 3.160985093751610e-01 3.154950448783889e-01 3.134432762908618e-01 3.154091978914177e-01 3.154138933700497e-01
 3.179857780857974e-01 3.155067981009265e-01 3.164303255897561e-01 3.178824362314576e-01 3.182033750178554e-01 3.207015409052828e-01 3.204831103763545e-01 3.192878672062555e-01 3.204699048900697e-01 3.235257669018560e-01
 3.232402759657599e-01 3.230481132595397e-01 3.388818762194268e-01 3.313771557659182e-01 3.375015001481851e-01 3.504469089338842e-01 3.486956485277046e-01 3.582386819457410e-01 3.563320202611892e-01 3.605655554713100e-01
 3.621338133890996e-01 3.586684873815605e-01 3.602839516353051e-01 3.307352273797436e-01 3.300650209996669e-01 3.367657983174953e-01 3.360107424735318e-01 3.293620828074380e-01 3.352320580956438e-01 3.286737303764859e-01
 3.344549191310245e-01 3.468875847575620e-01 3.450976855854860e-01 3.543974352217895e-01 3.525461528910807e-01 3.567516869065216e-01 3.584189421124920e-01 3.549318391180314e-01 3.566552782536771e-01 3.679826237116048e-01
 3.682073220582387e-01 3.684599759141001e-01 3.686760772977084e-01 3.673172608891259e-01 3.678214169179275e-01 3.687080206778796e-01 3.689143087909734e-01 3.688301700309287e-01 3.690262063427767e-01 3.680994321476925e-01
 3.682525324271656e-01 3.688914923084946e-01 3.690772947108231e-01 3.683445247480515e-01 3.689121109290104e-01 3.690928895174014e-01 3.689305593794410e-01 3.691064021878192e-01 3.683801427073548e-01 3.684132970645052e-01
 3.689491102906321e-01 3.691201185759307e-01 3.684462275381946e-01 3.689589467736078e-01 3.691275788005151e-01 3.689693851738475e-01 3.691356693521287e-01 3.684631245787289e-01 3.684805348555670e-01 3.689805577360752e-01
 3.691445231237388e-01 3.689925743347988e-01 3.691542504966298e-01 3.684985893339813e-01 3.685173970115888e-01 3.690195075187067e-01 3.691766953218746e-01 3.685576374791267e-01 3.662430492356641e-01 3.667937764583527e-01
 3.648268816800392e-01 3.654422753702168e-01 3.671223228983631e-01 3.673267217858087e-01 3.658393813297416e-01 3.661124730046633e-01 3.674689875318572e-01 3.663214991527028e-01 3.675290508159550e-01 3.675860940297675e-01
 3.664138875854665e-01 3.665024446375763e-01 3.676423177950980e-01 3.665893342595469e-01 3.676706316098943e-01 3.676993025680464e-01 3.666326592157448e-01 3.666761242610768e-01 3.677284607580787e-01 3.677582148512867e-01
 3.667198595651552e-01 3.667639745081622e-01 3.678198752210810e-01 3.668537091301226e-01 3.690866783407099e-01 3.692352553843275e-01 3.691729914704534e-01 3.693134479566292e-01 3.686503211127125e-01 3.687607123637969e-01
 3.694058999331284e-01 3.695315755655615e-01 3.690376503850093e-01 3.697145454804917e-01 3.698274031112311e-01 3.700933520015034e-01 3.701956503485122e-01 3.693854313582464e-01 3.697992643032711e-01 3.679535232359603e-01
 3.670409581622697e-01 3.681024777100266e-01 3.672403025525594e-01 3.684496886715376e-01 3.676792280280723e-01 3.688596130561682e-01 3.693282703214237e-01 3.681705017447370e-01 3.687119103310314e-01 3.631719877841514e-01
 3.638631203825569e-01 3.613916269869237e-01 3.621635054647882e-01 3.643401216590423e-01 3.646930599601374e-01 3.627253383893705e-01 3.631629104712149e-01 3.649795710376859e-01 3.635314935418560e-01 3.651094511270723e-01
 3.652345431391344e-01 3.637010802663102e-01 3.638648641596429e-01 3.653569707889073e-01 3.640249283072806e-01 3.654176874689163e-01 3.654782897274694e-01 3.641040647819223e-01 3.641828179263149e-01 3.655389079647385e-01
 3.655996524961053e-01 3.642613185219886e-01 3.643396780022274e-01 3.657218874245923e-01 3.644963413977838e-01 3.595981955764228e-01 3.604513000417126e-01 3.579045804527340e-01 3.588339302768084e-01 3.610974903644260e-01
 3.616186893583015e-01 3.595576960602525e-01 3.601549716868180e-01 3.620680709747747e-01 3.606774482870819e-01 3.622766906170224e-01 3.624784817021547e-01 3.609213171255789e-01 3.611574090352112e-01 3.626754976442617e-01
 3.613877672800610e-01 3.627727151074115e-01 3.628692833719979e-01 3.615013022900632e-01 3.616139511572118e-01 3.629653343864950e-01 3.630609813954485e-01 3.617258480242972e-01 3.618371087630860e-01 3.632514331122041e-01
 3.620580953934954e-01 3.659711495443689e-01 3.662287458592926e-01 3.648113053585496e-01 3.651306481899840e-01 3.667734943230004e-01 3.657876526043899e-01 3.673582011061599e-01 3.679820824174068e-01 3.664717670686854e-01
 3.671840429836449e-01 3.636308867883844e-01 3.624959175729747e-01 3.640108831852492e-01 3.629309645621786e-01 3.647783135295117e-01 3.637991228934796e-01 3.655605104529867e-01 3.663602187096261e-01 3.646715200381772e-01
 3.655523827080295e-01 4.291671502528532e-01 4.301613220142045e-01 4.261454223321279e-01 4.209678908701390e-01 4.133796096077305e-01 4.007028038488944e-01 4.473935200536333e-01 4.482818003050943e-01 4.447066627392549e-01
 4.401531077327356e-01 4.335959021585212e-01 4.727855114634464e-01 4.760094272435226e-01 4.598952068685757e-01 4.556586952515314e-01 4.496202535021082e-01 4.687234826471161e-01 4.629683784758432e-01 4.934071949154073e-01
 4.965135611965521e-01 4.840180814625591e-01 5.082793956457065e-01 5.113391523180295e-01 4.990578575248584e-01 3.952516397202598e-01 3.888721808908410e-01 4.085490483268321e-01 4.029230079123163e-01 3.814808783656554e-01
 3.963989783614086e-01 3.730697611055135e-01 3.888625391187222e-01 4.247889241925432e-01 4.132955870085690e-01 3.685319787441071e-01 3.638412579170211e-01 3.802285745370306e-01 3.590808119173838e-01 3.543539350606960e-01
 3.755077997853950e-01 3.705570333874880e-01 4.063211945201302e-01 3.943923123816979e-01 3.855547385637071e-01 3.983604721353102e-01 3.497703199413078e-01 3.454285338605461e-01 3.654414993347789e-01 3.602600521126664e-01
 3.414019743327242e-01 3.377334048423752e-01 3.551377518317229e-01 3.502077435758437e-01 3.755707396426696e-01 3.892725884967175e-01 3.702171661664630e-01 3.647244768351739e-01 3.789828475206606e-01 4.416371942797482e-01
 4.314581293257507e-01 4.186353815384825e-01 4.110015240658718e-01 4.023724790414079e-01 3.915706960913308e-01 4.554307799029370e-01 4.459542467634821e-01 4.342630036278101e-01 4.198571603070821e-01 4.680586036303507e-01
 4.835057864167002e-01 4.446532294616584e-01 4.611148395470601e-01 5.224252163755234e-01 5.254553074225926e-01 5.228210797345081e-01 5.258503705565234e-01 5.133013420299889e-01 5.136979647867583e-01 4.979811149373149e-01
 4.761617112280789e-01 4.713934291848459e-01 4.983807773723185e-01 4.765693857497487e-01 4.765759530890254e-01 3.344376702799615e-01 3.315094150240517e-01 3.455862659631616e-01 3.413542304930695e-01 3.266764402354845e-01
 3.375518675170290e-01 3.341853516395616e-01 3.592182801774306e-01 3.538503083336678e-01 3.734318809029221e-01 3.676991663396659e-01 3.487699017304333e-01 3.440938709547285e-01 3.619084570660376e-01 3.562222642250681e-01
 3.286798142238364e-01 3.398899320824164e-01 3.361791306011125e-01 3.508128163215757e-01 3.458239147731472e-01 3.245932189121761e-01 3.329475562796942e-01 3.301623755141423e-01 3.413446838221131e-01 3.374066514133125e-01
 3.809337123598006e-01 3.925865736735136e-01 3.751870562905120e-01 3.692413937981726e-01 3.815422520480073e-01 3.632242171703389e-01 3.573098461060107e-01 3.694373006882428e-01 3.516870802269031e-01 3.465162067735240e-01
 3.632356738015355e-01 3.571711927626170e-01 4.018391554015974e-01 3.910789034422138e-01 3.808921815740712e-01 3.747147272396535e-01 3.683749453452339e-01 3.790431966540657e-01 3.216536665554732e-01 3.339967438556407e-01
 3.310797263102739e-01 3.196301587268371e-01 3.265264201338232e-01 3.176342046215990e-01 3.233643513612603e-01 3.212755595334698e-01 3.418960917733465e-01 3.378598733144355e-01 3.514462569950147e-01 3.462253128228380e-01
 3.343913803180356e-01 3.314465555676196e-01 3.416022640048546e-01 3.376000445588463e-01 3.620372159287442e-01 3.559113085287157e-01 3.726441327491922e-01 3.661476044285081e-01 3.502052017683046e-01 3.450719927892020e-01
 3.597505075042352e-01 3.536791893420764e-01 3.341906816463219e-01 3.313229993703907e-01 3.405842334304998e-01 3.367429092763791e-01 3.481315920033941e-01 3.432294243261404e-01 3.269624354530670e-01 3.308089633868675e-01
 3.390090651231912e-01 3.354432536565919e-01 4.294324152589364e-01 4.172939260758612e-01 4.077569073540293e-01 3.970544171575117e-01 4.109431973034698e-01 4.469395580111483e-01 4.302484569299898e-01 4.217652188124522e-01
 3.850561625953897e-01 3.760409089314843e-01 3.694500081288697e-01 3.628734958423832e-01 3.719449605083235e-01 4.000849232930218e-01 3.879394925652747e-01 3.803726399358820e-01 3.565397721313992e-01 3.506748908268680e-01
 3.652455435669649e-01 3.587276798912565e-01 3.454411770519403e-01 3.409093236750994e-01 3.526325869667504e-01 3.471519513711303e-01 3.668664957174165e-01 3.746181281598928e-01 3.602208338749778e-01 3.539693518610823e-01
 3.677539026243074e-01 3.610218049771434e-01 4.005157501583529e-01 3.880325622173920e-01 3.744069153110579e-01 3.679322447078544e-01 4.101935213931452e-01 3.984948640464022e-01 3.855058326970818e-01 4.576456118068516e-01
 4.625678235256018e-01 4.416871613499239e-01 4.468720691373212e-01 4.229169747753447e-01 4.002435899073387e-01 3.940354334992477e-01 4.285649783247468e-01 4.066868309214199e-01 4.044017761299323e-01 4.629924034084874e-01
 4.629842754806483e-01 4.473144482566784e-01 4.473036081553144e-01 4.290384105534567e-01 4.290223959373992e-01 4.072113242125464e-01 4.071834606657461e-01 3.193999474197063e-01 3.240601490674552e-01 3.222536789510909e-01
 3.300248282747420e-01 3.264252379318623e-01 3.195620463288251e-01 3.241704398442624e-01 3.229078644813441e-01 3.370716651564760e-01 3.338731380145369e-01 3.423847880663781e-01 3.383404214786446e-01 3.483226894813535e-01
 3.433992015289146e-01 3.546772601222813e-01 3.489408115087658e-01 3.322020028432449e-01 3.392210334279715e-01 3.357433460816368e-01 3.439401531412594e-01 3.397017925384346e-01 3.611490098681764e-01 3.547692422522656e-01
 3.674297016880403e-01 3.606309176216979e-01 3.490162648706884e-01 3.440165394916905e-01 3.542747833680732e-01 3.485785775412166e-01 3.715221462538278e-01 3.662779519768237e-01 3.595073728772935e-01 3.532388244485424e-01
 3.645147361444160e-01 3.578284657297790e-01 3.281506086223729e-01 3.333046434086565e-01 3.397935634196322e-01 3.362987363087371e-01 3.436570222344549e-01 3.395213399901682e-01 3.476745358005042e-01 3.429067549842977e-01
 3.517210365785770e-01 3.463665609272798e-01 3.256284224358880e-01 3.291323781989604e-01 3.333550227821936e-01 3.389284420703654e-01 3.356714628711985e-01 3.418254118370139e-01 3.380669851706078e-01 3.804192802661979e-01
 3.762524142904703e-01 3.691443867495489e-01 3.732992144341635e-01 3.621893771486325e-01 3.661959075563691e-01 3.870507297481752e-01 3.728445973970711e-01 3.697637918270499e-01 3.556616186318630e-01 3.497977180451582e-01
 3.593700694425329e-01 3.530921319945469e-01 3.447311677263254e-01 3.404828182793095e-01 3.475596934002703e-01 3.428543405588791e-01 3.627439578832062e-01 3.657088331407473e-01 3.561498405352588e-01 3.588867066878916e-01
 3.502254461751425e-01 3.451104546568354e-01 3.526483612239893e-01 3.471825239917071e-01 3.915231837732748e-01 3.939830458882811e-01 3.774752772563224e-01 3.800551081221412e-01 3.631628343024245e-01 3.612390330521196e-01
 3.547607835471651e-01 3.490076124888185e-01 3.565081379472888e-01 3.505311250655649e-01 3.656203140177923e-01 3.587643932976906e-01 3.525137604478402e-01 3.945367637616821e-01 3.806189355523913e-01 3.944965974440188e-01
 3.805570487823225e-01 3.661284691320513e-01 3.660314889387424e-01 3.592078345605364e-01 3.528736121777533e-01 3.590897498777119e-01 3.527347724987829e-01 3.201439822052101e-01 3.223817025099210e-01 3.242173913596023e-01
 3.265764190149707e-01 3.294090554944301e-01 3.325657913236294e-01 3.389571121575172e-01 3.357918842527788e-01 3.408293723631806e-01 3.373261527371743e-01 3.425585863636454e-01 3.387473969621584e-01 3.440909292167253e-01
 3.400092090069742e-01 3.453768106000685e-01 3.410711086896800e-01 3.470559327090043e-01 3.424553306754559e-01 3.473251403774709e-01 3.471679488874929e-01 3.426377477153461e-01 3.424655878406352e-01 3.209604290612779e-01
 3.224043545220563e-01 3.236167452470422e-01 3.251806956159909e-01 3.270572575050898e-01 3.291427390357671e-01 3.312697295350800e-01 3.332148027161221e-01 3.347401792721786e-01 3.356351233645715e-01 3.356761961525334e-01
 3.354836190745766e-01 3.230872914530513e-01 3.235673040372613e-01 3.246610601301326e-01 3.262797058433707e-01 3.279369835644575e-01 3.288561403437747e-01 3.287373406942229e-01 3.285258179652820e-01 5.228191899535887e-01
 5.258503705565234e-01 5.228183227979950e-01 5.258503705565234e-01 5.136944015201435e-01 5.136926642420842e-01 5.228177546600008e-01 5.258503705565234e-01 5.136914818209654e-01 4.983755958463863e-01 4.983728876224087e-01
 4.983709396740431e-01 4.765616445666341e-01 4.765575085343897e-01 4.765542988588156e-01 4.629745156637599e-01 4.629692046005480e-01 4.472905565264004e-01 4.472832360827578e-01 4.629648192581107e-01 4.472766098555983e-01
 4.290029421110869e-01 4.289913981767197e-01 4.289794921413793e-01 4.071480007579258e-01 4.071247802640203e-01 4.070966824965726e-01 3.944428669368798e-01 3.944053610540545e-01 3.804687345684512e-01 3.804029975063054e-01
 3.943562790067480e-01 3.803110061342279e-01 3.658836955044587e-01 3.657676220298161e-01 3.655968912214780e-01 3.589047771840722e-01 3.587565442815249e-01 3.525124368390157e-01 3.523314852478954e-01 3.585346147748021e-01
 3.520569570107102e-01 3.469119844388147e-01 3.467012803391271e-01 3.421818130958338e-01 3.419462905608193e-01 3.463785562302049e-01 3.415831317600257e-01 3.351614319954571e-01 3.348912493972783e-01 3.344712847571674e-01
 3.281684955524635e-01 3.278660054543023e-01 3.273930033538215e-01 3.281669973823213e-01 3.280964765300259e-01 3.337256436770809e-01 3.331069759203203e-01 3.280812397613511e-01 3.276343436611963e-01 3.325958093189886e-01
 3.321071571228519e-01 3.435196576644651e-01 3.423495500899129e-01 3.509444190253755e-01 3.497279556142945e-01 3.533583101205431e-01 3.551262793881872e-01 3.521435894836213e-01 3.539266349308866e-01 3.272566003748312e-01
 3.269339892312400e-01 3.264316153761834e-01 3.317155391367815e-01 3.313776351974377e-01 3.308620709513524e-01 3.415549982140358e-01 3.410044842100537e-01 3.488709468611979e-01 3.482731966050124e-01 3.512696009701547e-01
 3.530458207372767e-01 3.506532188054732e-01 3.524164234657832e-01 5.228175629163848e-01 5.258503705565234e-01 5.136910692239609e-01 5.228174811667394e-01 5.258503705565234e-01 5.136908880639124e-01 4.983702155844252e-01
 4.983698795920598e-01 4.765529640839804e-01 4.765522865505987e-01 4.629628364639886e-01 4.472732825504716e-01 4.629617695887380e-01 4.472713740720541e-01 4.289727646728826e-01 4.289686591434422e-01 4.070789487024746e-01
 4.070675614965169e-01 3.943238769879420e-01 3.802480855806951e-01 3.943026632711522e-01 3.802062544741727e-01 3.654770705496743e-01 3.653964755770399e-01 3.583774207967068e-01 3.518611687639772e-01 3.582712240624505e-01
 3.517284625315180e-01 3.461472877339453e-01 3.413220493537686e-01 3.459901759732742e-01 3.411444241442388e-01 3.341683124972014e-01 3.339618964122417e-01 3.270511721448232e-01 3.268182125030299e-01 5.228174434098116e-01
 5.258503705565234e-01 5.136908029032042e-01 5.228174320683014e-01 5.258503705565234e-01 5.136907771391233e-01 4.983697165430742e-01 4.983696665882786e-01 4.765519416537432e-01 4.765518340127045e-01 4.629612106371751e-01
 4.472703439502634e-01 4.629610342737941e-01 4.472700152580950e-01 4.289663812834172e-01 4.289656468984980e-01 4.070611023581132e-01 4.070590022646905e-01 3.942905266534074e-01 3.801821527360119e-01 3.942865672628778e-01
 3.801742671824606e-01 3.653497715662241e-01 3.653344533786484e-01 3.582095449569059e-01 3.516512538596744e-01 3.581892950096042e-01 3.516258859509326e-01 3.458986599158949e-01 3.410408825062760e-01 3.458685753178974e-01
 3.410068335935706e-01 3.338414928044626e-01 3.338018880056383e-01 3.266823296265799e-01 3.266376352360776e-01 3.260700224810621e-01 3.304945460029997e-01 3.258242952617124e-01 3.302462102350357e-01 3.406182592630917e-01
 3.403607713874668e-01 3.478572393731072e-01 3.475819810698120e-01 3.502234857938067e-01 3.519754742202571e-01 3.499391403755273e-01 3.516831594719195e-01 3.256812250575409e-01 3.256342069758861e-01 3.301021140100913e-01
 3.300548333702951e-01 3.402126630014337e-01 3.401642667798540e-01 3.474245230499238e-01 3.473732149070876e-01 3.497765806167174e-01 3.515159375971653e-01 3.497236306922785e-01 3.514614586399017e-01 3.564296875772444e-01
 3.574177352827724e-01 3.552546440311437e-01 3.562734626564053e-01 3.582014948349927e-01 3.588580641127315e-01 3.570916057712655e-01 3.577843848832588e-01 3.594380353621614e-01 3.584012214630534e-01 3.597098302082318e-01
 3.599732310025678e-01 3.586914514531969e-01 3.589732042364588e-01 3.602302667536907e-01 3.592484623969883e-01 3.603569057448159e-01 3.604825002261119e-01 3.593841526481903e-01 3.595187536052384e-01 3.606071851586389e-01
 3.607310775708358e-01 3.596523971942330e-01 3.597851978328034e-01 3.609768586360976e-01 3.600486351618890e-01 3.543755025185226e-01 3.554025591623221e-01 3.537386583921786e-01 3.547631814528825e-01 3.562337519387622e-01
 3.569429791364864e-01 3.555959091752350e-01 3.563099231700231e-01 3.575785980490446e-01 3.569528808601488e-01 3.578788182650084e-01 3.581708755079905e-01 3.572575189066201e-01 3.575544303590798e-01 3.584566897592086e-01
 3.578454829817441e-01 3.585977332360485e-01 3.587377312459521e-01 3.579892723401516e-01 3.581320953826347e-01 3.588768103617830e-01 3.590150800680977e-01 3.582740736979192e-01 3.584153120655090e-01 3.592895419790833e-01
 3.586959067146444e-01 3.614624267383765e-01 3.619429318304418e-01 3.605688282348531e-01 3.610829915932623e-01 3.628954534663621e-01 3.620997681710724e-01 3.638447216456646e-01 3.647959644571980e-01 3.631092347445233e-01
 3.641166266968900e-01 3.598320331995897e-01 3.592513494067418e-01 3.603686253467900e-01 3.598015796282841e-01 3.614301837902781e-01 3.608919457092845e-01 3.624835292225886e-01 3.635334736844980e-01 3.619749342502970e-01
 3.630543424388691e-01 3.532894954791702e-01 3.543087705992315e-01 3.529907568052824e-01 3.540052719053103e-01 3.551389416273730e-01 3.558527339539336e-01 3.548322901246147e-01 3.555443995038317e-01 3.564974504481419e-01
 3.561887407089916e-01 3.568035917455477e-01 3.571023863029870e-01 3.564951244198432e-01 3.567944294969018e-01 3.573956695421504e-01 3.570884737449062e-01 3.575406931957996e-01 3.576848265069508e-01 3.572339653987295e-01
 3.573786231741014e-01 3.578281877449330e-01 3.579708785108743e-01 3.575225634110713e-01 3.576658858364223e-01 3.582545778552395e-01 3.579510015272884e-01 3.528195949389140e-01 3.538310022378353e-01 3.527637968768313e-01
 3.537741367028905e-01 3.546557513642906e-01 3.553663843579374e-01 3.545980775494291e-01 3.553081510248571e-01 3.560099748263628e-01 3.559514124191951e-01 3.563162279687905e-01 3.566155571530246e-01 3.562575794551383e-01
 3.565568722670860e-01 3.569097717961842e-01 3.568510976765698e-01 3.570554003526201e-01 3.572002286046232e-01 3.569967482883417e-01 3.571416094187491e-01 3.573443719381561e-01 3.574879291463380e-01 3.572857961369454e-01
 3.574294069197789e-01 3.577736070399680e-01 3.577152216872413e-01 3.588169640240407e-01 3.593749487291021e-01 3.585167929531812e-01 3.590788370116240e-01 3.604828876770220e-01 3.601966056314059e-01 3.615853287396315e-01
 3.626856387421045e-01 3.613104322282027e-01 3.624230123965453e-01 3.583408736645959e-01 3.582828738019436e-01 3.589048038339244e-01 3.588473163448008e-01 3.600274523428844e-01 3.599713078728920e-01 3.611472774449783e-01
 3.622667895511592e-01 3.610926591314767e-01 3.622134617876317e-01 3.705365724230653e-01 3.706316871663163e-01 3.710382346106648e-01 3.711329251836425e-01 3.702746460254461e-01 3.708083408600666e-01 3.698514213272037e-01
 3.704246232974294e-01 3.693013943727810e-01 3.699381262185082e-01 3.686438598625323e-01 3.693420658048573e-01 3.679249713988246e-01 3.686952032305306e-01 3.671792870763664e-01 3.680192867301137e-01 3.664447713541587e-01
 3.673511879409666e-01 3.720514631425939e-01 3.723391641043883e-01 3.713612592036425e-01 3.703287000805472e-01 3.692118920840716e-01 3.747333641571480e-01 3.754172710769454e-01 3.731940220555949e-01 3.787720755826374e-01
 3.792611900876623e-01 3.835823250730487e-01 3.839412935140188e-01 3.776516704188000e-01 3.827492858541667e-01 3.657532792654795e-01 3.667205534608018e-01 3.651259140014346e-01 3.661403120331801e-01 3.645839972805988e-01
 3.656392137017759e-01 3.641329122932578e-01 3.652124396051478e-01 3.637867801587176e-01 3.648922495907920e-01 3.635364122173519e-01 3.646523097137951e-01 3.633882389243078e-01 3.645145604642869e-01 3.633350171661165e-01
 3.644578117256110e-01 3.681899918981918e-01 3.673722700609470e-01 3.668920173599594e-01 3.667006788665856e-01 3.718143831923284e-01 3.712893478714824e-01 3.766177987212885e-01 3.819643073513544e-01 3.762148198917774e-01
 3.816532006623249e-01 3.893524711192517e-01 3.896236397481251e-01 3.964223306681552e-01 3.966344378266786e-01 3.887171400574485e-01 3.959219154883861e-01 4.054240514866940e-01 4.055976634551516e-01 4.176747637390101e-01
 4.178264507152772e-01 4.050124493862037e-01 4.173140195942912e-01 3.881093964896443e-01 3.954380821331220e-01 3.878657047607097e-01 3.952424853898558e-01 4.046115221567179e-01 4.169609747287107e-01 4.044485309251487e-01
 4.168169395835679e-01 4.365884939656924e-01 4.367371063697855e-01 4.756518559038912e-01 4.758497008040880e-01 4.362346908029249e-01 4.751824201274945e-01 6.312177550882069e-01 6.318617867950634e-01 6.297047472701867e-01
 3.351555715847453e+00 3.354775313207850e+00 3.343805756413660e+00 4.358878541062309e-01 4.747242804350132e-01 4.357461600060298e-01 4.745376669872598e-01 6.282482493752927e-01 6.276605388890759e-01 3.336090888529705e+00
 3.332904989945491e+00 5.228174433925205e-01 5.258503705565234e-01 5.136908028645825e-01 5.228174811291931e-01 5.258503705565234e-01 5.136908879800030e-01 4.983697164718337e-01 4.983698794371180e-01 4.765519415202261e-01
 4.765522862595746e-01 4.629612104478025e-01 4.472703436701990e-01 4.629617691750975e-01 4.472713734580256e-01 4.289663808492174e-01 4.289686581842583e-01 4.070611016634369e-01 4.070675599329787e-01 3.942905257940409e-01
 3.801821517500109e-01 3.943026612947821e-01 3.802062521034458e-01 3.653497706360767e-01 3.653964730980050e-01 3.582095441570923e-01 3.516512532334373e-01 3.582712217134005e-01 3.517284604012972e-01 3.458986594621251e-01
 3.410408821853227e-01 3.459901740740079e-01 3.411444224162254e-01 3.338414925698400e-01 3.339618947207472e-01 3.266823288914063e-01 3.268182096420942e-01 5.228175628522983e-01 5.258503705565234e-01 5.136910690804130e-01