DF-ISE text

Info {
  version = 1.0
  type    = dataset
  dimension   = 2
  nb_vertices = 1377
  nb_edges    = 3808
  nb_faces    = 0
  nb_elements = 2448
  nb_regions  = 3
  datasets    = [ "ElectrostaticPotential" "eDensity" "hDensity" "LatticeTemperature" "EffectiveIntrinsicDensity" "IntrinsicDensity" "eEquilibriumDensity" "hEquilibriumDensity" "BandGap" "EffectiveBandGap" "BandgapNarrowing" "ValenceBandEnergy" "ConductionBandEnergy" "hEffectiveStateDensity" "eEffectiveStateDensity" "eQuasiFermiEnergy" "hQuasiFermiEnergy" "ElectronAffinity" "TotalCurrentDensity" "eCurrentDensity" "hCurrentDensity" "eMobility" "hMobility" "eVelocity" "hVelocity" "ElectricField" "eQuasiFermiPotential" "hQuasiFermiPotential" "SpaceCharge" "eGradQuasiFermi" "hGradQuasiFermi" "eEparallel" "hEparallel" "eEnormal" "hEnormal" "srhRecombination" "Band2BandGeneration" "AugerRecombination" "RadiativeRecombination" "ImpactIonization" "eImpactIonization" "hImpactIonization" "eAlphaAvalanche" "hAlphaAvalanche" "TotalRecombination" "eLifetime" "hLifetime" "SurfaceRecombination" "DopingConcentration" "DonorConcentration" "AcceptorConcentration" "DonorPlusConcentration" "AccepMinusConcentration" "QuasiFermiPotential" ]
  functions   = [ ElectrostaticPotential eDensity hDensity LatticeTemperature EffectiveIntrinsicDensity IntrinsicDensity eEquilibriumDensity hEquilibriumDensity BandGap EffectiveBandGap BandgapNarrowing ValenceBandEnergy ConductionBandEnergy hEffectiveStateDensity eEffectiveStateDensity eQuasiFermiEnergy hQuasiFermiEnergy ElectronAffinity TotalCurrentDensity eCurrentDensity hCurrentDensity eMobility hMobility eVelocity hVelocity ElectricField eQuasiFermiPotential hQuasiFermiPotential SpaceCharge eGradQuasiFermi hGradQuasiFermi eEparallel hEparallel eEnormal hEnormal srhRecombination Band2BandGeneration AugerRecombination RadiativeRecombination ImpactIonization eImpactIonization hImpactIonization eAlphaAvalanche hAlphaAvalanche TotalRecombination eLifetime hLifetime SurfaceRecombination DopingConcentration DonorConcentration AcceptorConcentration DonorPlusConcentration AccepMinusConcentration QuasiFermiPotential ]
}

Data {

  Dataset ("ElectrostaticPotential") {
    function  = ElectrostaticPotential
    type      = scalar
    dimension = 1
    location  = vertex
    validity  = [ "N-" ]
    Values (1377) {
 -4.083311392325344e-01 -4.044268194451109e-01 -4.083311392325344e-01 -4.053453002886671e-01 -4.053453002886671e-01 -4.083311392325344e-01 -4.044268194451109e-01 -4.053453002886671e-01 -3.954688345542250e-01 -3.954688345542250e-01
 -3.787007270821059e-01 -3.787007270821059e-01 -3.954688345542250e-01 -3.787007270821059e-01 -4.083311392325344e-01 -4.044268194451109e-01 -4.053453002886671e-01 -4.083311392325344e-01 -4.044268194451109e-01 -4.053453002886671e-01
 -3.954688345542250e-01 -3.787007270821059e-01 -3.954688345542250e-01 -3.787007270821059e-01 -3.550377774493259e-01 -3.550377774493259e-01 -3.550377774493259e-01 -3.244691817640126e-01 -3.244691817640126e-01 -3.244691817640126e-01
 -3.065841550276338e-01 -3.065841550276338e-01 -2.865455534323127e-01 -2.865455534323127e-01 -3.065841550276338e-01 -2.865455534323127e-01 -1.702986611948349e-01 -1.702986611948349e-01 3.991645946829261e+00 3.991645946829261e+00
 -1.702986611948348e-01 3.991645946829262e+00 -3.550377774493259e-01 -3.550377774493259e-01 -3.244691817640126e-01 -3.244691817640126e-01 -3.065841550276338e-01 -2.865455534323127e-01 -3.065841550276338e-01 -2.865455534323127e-01
 -1.702986611948349e-01 3.991645946829262e+00 -1.702986611948349e-01 3.991645946829262e+00 1.035449124493072e+01 1.035449124493072e+01 1.777696493113315e+01 1.777696493113314e+01 1.035449124493072e+01 1.777696493113315e+01
 2.567653892830158e+01 2.567653892830158e+01 2.567653892830158e+01 2.969960082800411e+01 2.969960082800411e+01 3.375214972898521e+01 3.375214972898521e+01 2.969960082800411e+01 3.375214972898521e+01 3.782126657327409e+01
 3.782126657327409e+01 3.782126657327409e+01 3.985884825767312e+01 3.985884825767312e+01 4.189767925123818e+01 4.189767925123818e+01 3.985884825767312e+01 4.189767925123818e+01 4.393714409639883e+01 4.393714409639883e+01
 4.597675004910932e+01 4.597675004910932e+01 4.393714409639883e+01 4.597675004910932e+01 4.801610390946377e+01 4.801610390946377e+01 5.005489294272636e+01 5.005489294272636e+01 4.801610390946377e+01 5.005489294272636e+01
 5.413003276824990e+01 5.413003276824990e+01 5.413003276824988e+01 5.820052091396486e+01 5.820052091396486e+01 5.820052091396486e+01 6.632495178961045e+01 6.632495178961045e+01 6.632495178961045e+01 1.035449124493072e+01
 1.777696493113314e+01 1.035449124493072e+01 1.777696493113315e+01 2.567653892830158e+01 2.567653892830158e+01 2.969960082800411e+01 3.375214972898521e+01 2.969960082800411e+01 3.375214972898521e+01 3.782126657327409e+01
 3.782126657327410e+01 3.985884825767312e+01 4.189767925123818e+01 3.985884825767312e+01 4.189767925123819e+01 4.393714409639883e+01 4.597675004910932e+01 4.393714409639883e+01 4.597675004910932e+01 4.801610390946377e+01
 5.005489294272636e+01 4.801610390946377e+01 5.005489294272636e+01 5.413003276824988e+01 5.413003276824990e+01 5.820052091396486e+01 5.820052091396486e+01 6.632495178961045e+01 6.632495178961045e+01 8.249754120650816e+01
 8.249754120650816e+01 9.856210220815694e+01 9.856210220815694e+01 8.249754120650816e+01 9.856210220815694e+01 1.145179773122248e+02 1.145179773122248e+02 1.303651108393298e+02 1.303651108393298e+02 1.145179773122248e+02
 1.303651108393298e+02 8.249754120650816e+01 8.249754120650816e+01 9.856210220815694e+01 9.856210220815694e+01 1.145179773122248e+02 1.303651108393298e+02 1.145179773122248e+02 1.303651108393298e+02 1.461034989406384e+02
 1.461034989406384e+02 1.617331413988473e+02 1.617331413988473e+02 1.461034989406384e+02 1.617331413988473e+02 1.772540382039309e+02 1.772540382039309e+02 1.926661893555109e+02 1.926661893555109e+02 1.772540382039309e+02
 1.926661893555109e+02 1.461034989406384e+02 1.617331413988473e+02 1.461034989406384e+02 1.617331413988473e+02 1.772540382039309e+02 1.926661893555109e+02 1.772540382039309e+02 1.926661893555109e+02 2.079695948535760e+02
 2.079695948535760e+02 2.231642546981258e+02 2.231642546981258e+02 2.079695948535760e+02 2.231642546981258e+02 2.382501688891605e+02 2.382501688891605e+02 2.532273374266800e+02 2.532273374266800e+02 2.382501688891605e+02
 2.532273374266800e+02 2.079695948535760e+02 2.231642546981258e+02 2.079695948535760e+02 2.231642546981258e+02 2.382501688891605e+02 2.532273374266800e+02 2.382501688891605e+02 2.532273374266800e+02 2.680957603106847e+02
 2.680957603106847e+02 2.828554375411743e+02 2.828554375411743e+02 2.680957603106847e+02 2.828554375411743e+02 2.975063691181491e+02 2.975063691181491e+02 3.120485550416092e+02 3.120485550416092e+02 2.975063691181491e+02
 3.120485550416092e+02 2.680957603106847e+02 2.828554375411743e+02 2.680957603106847e+02 2.828554375411743e+02 2.975063691181491e+02 3.120485550416092e+02 2.975063691181491e+02 3.120485550416092e+02 3.264819953115546e+02
 3.264819953115546e+02 3.408066899279855e+02 3.408066899279855e+02 3.264819953115546e+02 3.408066899279855e+02 3.550226388909019e+02 3.550226388909019e+02 3.691298422003040e+02 3.691298422003040e+02 3.550226388909019e+02
 3.691298422003040e+02 3.264819953115546e+02 3.408066899279855e+02 3.264819953115546e+02 3.408066899279855e+02 3.550226388909019e+02 3.691298422003040e+02 3.550226388909019e+02 3.691298422003040e+02 3.831282998561917e+02
 3.831282998561917e+02 3.970180118585654e+02 3.970180118585654e+02 3.831282998561917e+02 3.970180118585654e+02 4.107989782074249e+02 4.107989782074249e+02 4.244711989027705e+02 4.244711989027705e+02 4.107989782074249e+02
 4.244711989027705e+02 3.831282998561917e+02 3.970180118585654e+02 3.831282998561917e+02 3.970180118585654e+02 4.107989782074249e+02 4.244711989027705e+02 4.107989782074249e+02 4.244711989027705e+02 4.380346739446022e+02
 4.380346739446022e+02 4.514894033329202e+02 4.514894033329202e+02 4.380346739446022e+02 4.514894033329202e+02 4.648353870677245e+02 4.648353870677245e+02 4.780726251490153e+02 4.780726251490153e+02 4.648353870677245e+02
 4.780726251490153e+02 4.380346739446022e+02 4.514894033329202e+02 4.380346739446022e+02 4.514894033329202e+02 4.648353870677245e+02 4.780726251490153e+02 4.648353870677245e+02 4.780726251490153e+02 4.912011175767927e+02
 4.912011175767927e+02 5.042208643510568e+02 5.042208643510568e+02 4.912011175767927e+02 5.042208643510568e+02 5.171318654718077e+02 5.171318654718077e+02 5.299341209390456e+02 5.299341209390456e+02 5.171318654718077e+02
 5.299341209390456e+02 4.912011175767927e+02 5.042208643510568e+02 4.912011175767927e+02 5.042208643510568e+02 5.171318654718077e+02 5.299341209390456e+02 5.171318654718077e+02 5.299341209390456e+02 5.426276307527704e+02
 5.426276307527704e+02 5.552123949129825e+02 5.552123949129825e+02 5.426276307527704e+02 5.552123949129825e+02 5.676884134196820e+02 5.676884134196820e+02 5.800556862728688e+02 5.800556862728688e+02 5.676884134196820e+02
 5.800556862728688e+02 5.426276307527704e+02 5.552123949129825e+02 5.426276307527704e+02 5.552123949129825e+02 5.676884134196820e+02 5.800556862728688e+02 5.676884134196820e+02 5.800556862728688e+02 5.923142134725432e+02
 5.923142134725432e+02 6.044639950187054e+02 6.044639950187054e+02 5.923142134725432e+02 6.044639950187054e+02 6.165050309113554e+02 6.165050309113554e+02 6.284373211504935e+02 6.284373211504935e+02 6.165050309113554e+02
 6.284373211504935e+02 5.923142134725432e+02 6.044639950187054e+02 5.923142134725432e+02 6.044639950187054e+02 6.165050309113554e+02 6.284373211504935e+02 6.165050309113554e+02 6.284373211504935e+02 6.402608657361196e+02
 6.402608657361196e+02 6.519756646682341e+02 6.519756646682341e+02 6.402608657361196e+02 6.519756646682341e+02 6.635817179468370e+02 6.635817179468370e+02 6.750790255719285e+02 6.750790255719285e+02 6.635817179468370e+02
 6.750790255719285e+02 6.402608657361196e+02 6.519756646682341e+02 6.402608657361196e+02 6.519756646682341e+02 6.635817179468370e+02 6.750790255719285e+02 6.635817179468370e+02 6.750790255719285e+02 6.864675875435088e+02
 6.864675875435088e+02 6.977474038615779e+02 6.977474038615779e+02 6.864675875435088e+02 6.977474038615779e+02 7.089184745261363e+02 7.089184745261363e+02 7.199807995371838e+02 7.199807995371838e+02 7.089184745261363e+02
 7.199807995371838e+02 6.864675875435088e+02 6.977474038615779e+02 6.864675875435088e+02 6.977474038615779e+02 7.089184745261363e+02 7.199807995371838e+02 7.089184745261363e+02 7.199807995371838e+02 7.309343788947208e+02
 7.309343788947208e+02 7.417792125987473e+02 7.417792125987473e+02 7.309343788947208e+02 7.417792125987473e+02 7.525153006492636e+02 7.525153006492636e+02 7.631426430462701e+02 7.631426430462701e+02 7.525153006492636e+02
 7.631426430462701e+02 7.309343788947208e+02 7.417792125987473e+02 7.309343788947208e+02 7.417792125987473e+02 7.525153006492636e+02 7.631426430462701e+02 7.525153006492636e+02 7.631426430462701e+02 -4.083311392325344e-01
 -4.044268194451109e-01 -4.053453002886671e-01 -4.083311392325344e-01 -4.044268194451109e-01 -4.053453002886671e-01 -3.954688345542250e-01 -3.787007270821059e-01 -3.954688345542250e-01 -3.787007270821059e-01 -3.550377774493259e-01
 -3.550377774493259e-01 -3.244691817640126e-01 -3.244691817640126e-01 -3.065841550276338e-01 -2.865455534323127e-01 -3.065841550276338e-01 -2.865455534323127e-01 -1.702986611948348e-01 3.991645946829262e+00 -1.702986611948347e-01
 3.991645946829263e+00 1.035449124493072e+01 1.777696493113315e+01 1.035449124493072e+01 1.777696493113315e+01 2.567653892830158e+01 2.567653892830158e+01 2.969960082800411e+01 3.375214972898521e+01 2.969960082800411e+01
 3.375214972898521e+01 3.782126657327410e+01 3.782126657327410e+01 3.985884825767312e+01 4.189767925123819e+01 3.985884825767312e+01 4.189767925123819e+01 4.393714409639883e+01 4.597675004910932e+01 4.393714409639883e+01
 4.597675004910932e+01 4.801610390946377e+01 5.005489294272636e+01 4.801610390946377e+01 5.005489294272637e+01 5.413003276824990e+01 5.413003276824990e+01 5.820052091396486e+01 5.820052091396486e+01 6.632495178961045e+01
 6.632495178961045e+01 8.249754120650816e+01 8.249754120650816e+01 9.856210220815694e+01 9.856210220815694e+01 1.145179773122248e+02 1.303651108393298e+02 1.145179773122248e+02 1.303651108393298e+02 1.461034989406384e+02
 1.617331413988473e+02 1.461034989406384e+02 1.617331413988473e+02 1.772540382039309e+02 1.926661893555109e+02 1.772540382039309e+02 1.926661893555109e+02 2.079695948535760e+02 2.231642546981258e+02 2.079695948535760e+02
 2.231642546981258e+02 2.382501688891605e+02 2.532273374266800e+02 2.382501688891605e+02 2.532273374266800e+02 2.680957603106847e+02 2.828554375411743e+02 2.680957603106847e+02 2.828554375411743e+02 2.975063691181491e+02
 3.120485550416092e+02 2.975063691181492e+02 3.120485550416092e+02 3.264819953115546e+02 3.408066899279855e+02 3.264819953115546e+02 3.408066899279855e+02 3.550226388909019e+02 3.691298422003040e+02 3.550226388909019e+02
 3.691298422003040e+02 3.831282998561917e+02 3.970180118585654e+02 3.831282998561917e+02 3.970180118585654e+02 4.107989782074249e+02 4.244711989027705e+02 4.107989782074249e+02 4.244711989027705e+02 4.380346739446022e+02
 4.514894033329202e+02 4.380346739446022e+02 4.514894033329202e+02 4.648353870677245e+02 4.780726251490153e+02 4.648353870677245e+02 4.780726251490153e+02 4.912011175767927e+02 5.042208643510568e+02 4.912011175767927e+02
 5.042208643510568e+02 5.171318654718077e+02 5.299341209390456e+02 5.171318654718077e+02 5.299341209390456e+02 5.426276307527704e+02 5.552123949129825e+02 5.426276307527704e+02 5.552123949129825e+02 5.676884134196820e+02
 5.800556862728688e+02 5.676884134196820e+02 5.800556862728688e+02 5.923142134725432e+02 6.044639950187054e+02 5.923142134725432e+02 6.044639950187054e+02 6.165050309113554e+02 6.284373211504935e+02 6.165050309113554e+02
 6.284373211504935e+02 6.402608657361196e+02 6.519756646682341e+02 6.402608657361196e+02 6.519756646682341e+02 6.635817179468370e+02 6.750790255719285e+02 6.635817179468370e+02 6.750790255719285e+02 6.864675875435088e+02
 6.977474038615779e+02 6.864675875435088e+02 6.977474038615779e+02 7.089184745261363e+02 7.199807995371838e+02 7.089184745261363e+02 7.199807995371838e+02 7.309343788947208e+02 7.417792125987473e+02 7.309343788947208e+02
 7.417792125987473e+02 7.525153006492636e+02 7.631426430462701e+02 7.525153006492636e+02 7.631426430462701e+02 -4.083311392325344e-01 -4.044268194451109e-01 -4.053453002886671e-01 -4.083311392325344e-01 -4.053453002886671e-01
 -3.954688345542250e-01 -3.787007270821059e-01 -3.954688345542250e-01 -3.787007270821059e-01 -3.550377774493259e-01 -3.550377774493259e-01 -3.244691817640126e-01 -3.244691817640126e-01 -3.065841550276338e-01 -2.865455534323127e-01
 -3.065841550276338e-01 -2.865455534323127e-01 -1.702986611948349e-01 3.991645946829263e+00 -1.702986611948348e-01 3.991645946829263e+00 1.035449124493072e+01 1.777696493113315e+01 1.035449124493072e+01 1.777696493113315e+01
 2.567653892830158e+01 2.567653892830158e+01 2.969960082800412e+01 3.375214972898521e+01 2.969960082800412e+01 3.375214972898521e+01 3.782126657327410e+01 3.985884825767312e+01 4.189767925123819e+01 4.393714409639883e+01
 4.597675004910932e+01 4.801610390946377e+01 5.005489294272637e+01 5.413003276824990e+01 5.820052091396486e+01 6.632495178961045e+01 3.782126657327410e+01 3.985884825767313e+01 4.189767925123819e+01 4.393714409639883e+01
 4.597675004910932e+01 4.801610390946377e+01 5.005489294272637e+01 5.413003276824990e+01 5.820052091396486e+01 6.632495178961045e+01 8.249754120650816e+01 9.856210220815694e+01 8.249754120650816e+01 9.856210220815694e+01
 1.145179773122248e+02 1.303651108393298e+02 1.145179773122248e+02 1.303651108393298e+02 1.461034989406384e+02 1.617331413988473e+02 1.461034989406384e+02 1.617331413988473e+02 1.772540382039309e+02 1.926661893555109e+02
 1.772540382039309e+02 1.926661893555109e+02 2.079695948535760e+02 2.231642546981258e+02 2.079695948535760e+02 2.231642546981258e+02 2.382501688891605e+02 2.532273374266800e+02 2.382501688891605e+02 2.532273374266800e+02
 2.680957603106847e+02 2.828554375411743e+02 2.680957603106847e+02 2.828554375411743e+02 2.975063691181491e+02 3.120485550416092e+02 2.975063691181491e+02 3.120485550416092e+02 3.264819953115546e+02 3.408066899279855e+02
 3.264819953115546e+02 3.408066899279855e+02 3.550226388909019e+02 3.691298422003040e+02 3.550226388909019e+02 3.691298422003040e+02 3.831282998561917e+02 3.970180118585654e+02 3.831282998561917e+02 3.970180118585654e+02
 4.107989782074249e+02 4.244711989027705e+02 4.107989782074249e+02 4.244711989027705e+02 4.380346739446022e+02 4.514894033329202e+02 4.380346739446022e+02 4.514894033329202e+02 4.648353870677245e+02 4.780726251490153e+02
 4.648353870677245e+02 4.780726251490153e+02 4.912011175767927e+02 5.042208643510568e+02 4.912011175767927e+02 5.042208643510568e+02 5.171318654718077e+02 5.299341209390456e+02 5.171318654718077e+02 5.299341209390456e+02
 5.426276307527704e+02 5.552123949129825e+02 5.426276307527704e+02 5.552123949129825e+02 5.676884134196820e+02 5.800556862728688e+02 5.676884134196820e+02 5.800556862728688e+02 5.923142134725432e+02 6.044639950187054e+02
 5.923142134725432e+02 6.044639950187054e+02 6.165050309113554e+02 6.284373211504935e+02 6.165050309113554e+02 6.284373211504935e+02 6.402608657361196e+02 6.519756646682341e+02 6.402608657361196e+02 6.519756646682341e+02
 6.635817179468370e+02 6.750790255719285e+02 6.635817179468370e+02 6.750790255719285e+02 6.864675875435088e+02 6.977474038615779e+02 6.864675875435088e+02 6.977474038615779e+02 7.089184745261363e+02 7.199807995371838e+02
 7.089184745261363e+02 7.199807995371838e+02 7.309343788947208e+02 7.417792125987473e+02 7.309343788947208e+02 7.417792125987473e+02 7.525153006492636e+02 7.631426430462701e+02 7.525153006492636e+02 7.631426430462701e+02
 7.736612397897665e+02 7.736612397897665e+02 7.840710908797533e+02 7.840710908797533e+02 7.736612397897665e+02 7.840710908797533e+02 7.943721963162308e+02 7.943721963162308e+02 8.045645560991991e+02 8.045645560991991e+02
 7.943721963162308e+02 8.045645560991991e+02 7.736612397897665e+02 7.840710908797533e+02 7.736612397897665e+02 7.840710908797533e+02 7.943721963162308e+02 8.045645560991991e+02 7.943721963162308e+02 8.045645560991991e+02
 8.146481702286583e+02 8.146481702286583e+02 8.246230387046086e+02 8.246230387046086e+02 8.146481702286583e+02 8.246230387046086e+02 8.344891615270504e+02 8.344891615270504e+02 8.442465386959839e+02 8.442465386959839e+02
 8.344891615270504e+02 8.442465386959839e+02 8.146481702286583e+02 8.246230387046087e+02 8.146481702286583e+02 8.246230387046087e+02 8.344891615270504e+02 8.442465386959839e+02 8.344891615270504e+02 8.442465386959839e+02
 8.538951702114092e+02 8.538951702114092e+02 8.634350560733267e+02 8.634350560733267e+02 8.538951702114092e+02 8.634350560733267e+02 8.728661962817364e+02 8.728661962817364e+02 8.821885908366389e+02 8.821885908366389e+02
 8.728661962817364e+02 8.821885908366389e+02 8.538951702114092e+02 8.634350560733267e+02 8.538951702114092e+02 8.634350560733267e+02 8.728661962817364e+02 8.821885908366389e+02 8.728661962817364e+02 8.821885908366389e+02
 8.914022397380343e+02 8.914022397380343e+02 9.005071429859229e+02 9.005071429859229e+02 8.914022397380343e+02 9.005071429859229e+02 9.095033005803045e+02 9.095033005803045e+02 9.183907125211800e+02 9.183907125211800e+02
 9.095033005803045e+02 9.183907125211800e+02 8.914022397380343e+02 9.005071429859229e+02 8.914022397380343e+02 9.005071429859229e+02 9.095033005803045e+02 9.183907125211800e+02 9.095033005803045e+02 9.183907125211800e+02
 9.271693788085497e+02 9.271693788085497e+02 9.358392994424138e+02 9.358392994424138e+02 9.271693788085497e+02 9.358392994424138e+02 9.444004744227723e+02 9.444004744227723e+02 9.528529037496257e+02 9.528529037496257e+02
 9.444004744227723e+02 9.528529037496257e+02 9.271693788085497e+02 9.358392994424138e+02 9.271693788085497e+02 9.358392994424138e+02 9.444004744227723e+02 9.528529037496257e+02 9.444004744227723e+02 9.528529037496257e+02
 9.611965874229744e+02 9.611965874229744e+02 9.694315254428186e+02 9.694315254428186e+02 9.611965874229744e+02 9.694315254428186e+02 9.775577178091588e+02 9.775577178091588e+02 9.855751645219954e+02 9.855751645219954e+02
 9.775577178091588e+02 9.855751645219954e+02 9.611965874229744e+02 9.694315254428186e+02 9.611965874229744e+02 9.694315254428186e+02 9.775577178091588e+02 9.855751645219954e+02 9.775577178091588e+02 9.855751645219954e+02
 9.934838655813285e+02 9.934838655813285e+02 1.001283820987159e+03 1.001283820987159e+03 9.934838655813285e+02 1.001283820987159e+03 1.008975030739486e+03 1.008975030739486e+03 1.016557494838312e+03 1.016557494838312e+03
 1.008975030739486e+03 1.016557494838312e+03 9.934838655813285e+02 1.001283820987159e+03 9.934838655813285e+02 1.001283820987159e+03 1.008975030739486e+03 1.016557494838312e+03 1.008975030739486e+03 1.016557494838312e+03
 1.024031213283636e+03 1.024031213283636e+03 1.031396186075458e+03 1.031396186075458e+03 1.024031213283636e+03 1.031396186075458e+03 1.038652413213780e+03 1.038652413213780e+03 1.045799894698602e+03 1.045799894698602e+03
 1.038652413213780e+03 1.045799894698602e+03 1.024031213283636e+03 1.031396186075458e+03 1.024031213283636e+03 1.031396186075458e+03 1.038652413213780e+03 1.045799894698602e+03 1.038652413213780e+03 1.045799894698602e+03
 7.736612397897665e+02 7.840710908797533e+02 7.736612397897665e+02 7.840710908797533e+02 7.943721963162308e+02 8.045645560991991e+02 7.943721963162308e+02 8.045645560991991e+02 8.146481702286583e+02 8.246230387046087e+02
 8.146481702286583e+02 8.246230387046087e+02 8.344891615270504e+02 8.442465386959839e+02 8.344891615270504e+02 8.442465386959839e+02 8.538951702114092e+02 8.634350560733267e+02 8.538951702114092e+02 8.634350560733267e+02
 8.728661962817364e+02 8.821885908366389e+02 8.728661962817364e+02 8.821885908366389e+02 8.914022397380343e+02 9.005071429859229e+02 8.914022397380343e+02 9.005071429859229e+02 9.095033005803045e+02 9.183907125211800e+02
 9.095033005803045e+02 9.183907125211800e+02 9.271693788085497e+02 9.358392994424138e+02 9.271693788085497e+02 9.358392994424138e+02 9.444004744227723e+02 9.528529037496257e+02 9.444004744227723e+02 9.528529037496257e+02
 9.611965874229744e+02 9.694315254428186e+02 9.611965874229744e+02 9.694315254428186e+02 9.775577178091588e+02 9.855751645219954e+02 9.775577178091588e+02 9.855751645219954e+02 9.934838655813285e+02 1.001283820987159e+03
 9.934838655813285e+02 1.001283820987159e+03 1.008975030739486e+03 1.016557494838312e+03 1.008975030739486e+03 1.016557494838312e+03 1.024031213283636e+03 1.031396186075458e+03 1.024031213283636e+03 1.031396186075458e+03
 1.038652413213780e+03 1.045799894698602e+03 1.038652413213780e+03 1.045799894698602e+03 7.736612397897665e+02 7.840710908797533e+02 7.736612397897665e+02 7.840710908797533e+02 7.943721963162308e+02 8.045645560991991e+02
 7.943721963162308e+02 8.045645560991991e+02 8.146481702286583e+02 8.246230387046086e+02 8.146481702286583e+02 8.246230387046086e+02 8.344891615270504e+02 8.442465386959839e+02 8.344891615270504e+02 8.442465386959839e+02
 8.538951702114092e+02 8.634350560733267e+02 8.538951702114092e+02 8.634350560733267e+02 8.728661962817364e+02 8.821885908366389e+02 8.728661962817364e+02 8.821885908366389e+02 8.914022397380343e+02 9.005071429859229e+02
 8.914022397380343e+02 9.005071429859229e+02 9.095033005803045e+02 9.183907125211800e+02 9.095033005803045e+02 9.183907125211800e+02 9.271693788085497e+02 9.358392994424138e+02 9.271693788085497e+02 9.358392994424138e+02
 9.444004744227723e+02 9.528529037496257e+02 9.444004744227723e+02 9.528529037496257e+02 9.611965874229744e+02 9.694315254428186e+02 9.611965874229744e+02 9.694315254428186e+02 9.775577178091588e+02 9.855751645219954e+02
 9.775577178091588e+02 9.855751645219954e+02 9.934838655813285e+02 1.001283820987159e+03 9.934838655813285e+02 1.001283820987159e+03 1.008975030739486e+03 1.016557494838312e+03 1.008975030739486e+03 1.016557494838312e+03
 1.024031213283636e+03 1.031396186075458e+03 1.024031213283636e+03 1.031396186075458e+03 1.038652413213780e+03 1.045799894698602e+03 1.038652413213780e+03 1.045799894698602e+03 1.052838630529923e+03 1.052838630529923e+03
 1.059768620707745e+03 1.059768620707745e+03 1.052838630529923e+03 1.059768620707745e+03 1.066589865232069e+03 1.066589865232069e+03 1.073302364102894e+03 1.073302364102894e+03 1.066589865232069e+03 1.073302364102894e+03
 1.052838630529923e+03 1.059768620707745e+03 1.052838630529923e+03 1.059768620707745e+03 1.066589865232069e+03 1.073302364102894e+03 1.066589865232069e+03 1.073302364102894e+03 1.079906117320221e+03 1.079906117320221e+03
 1.086401124884051e+03 1.086401124884051e+03 1.079906117320221e+03 1.086401124884051e+03 1.092787386794384e+03 1.092787386794384e+03 1.099064903051222e+03 1.099064903051222e+03 1.092787386794384e+03 1.099064903051222e+03
 1.079906117320221e+03 1.086401124884051e+03 1.079906117320221e+03 1.086401124884051e+03 1.092787386794384e+03 1.099064903051222e+03 1.092787386794384e+03 1.099064903051222e+03 1.105233673654565e+03 1.105233673654565e+03
 1.111293698604413e+03 1.111293698604413e+03 1.105233673654565e+03 1.111293698604413e+03 1.117244977900767e+03 1.117244977900767e+03 1.123087511543628e+03 1.123087511543628e+03 1.117244977900767e+03 1.123087511543628e+03
 1.105233673654565e+03 1.111293698604413e+03 1.105233673654565e+03 1.111293698604413e+03 1.117244977900767e+03 1.123087511543628e+03 1.117244977900767e+03 1.123087511543628e+03 1.128821299532996e+03 1.128821299532996e+03
 1.134446341868874e+03 1.134446341868874e+03 1.128821299532996e+03 1.134446341868874e+03 1.139962638551260e+03 1.139962638551260e+03 1.145370189580157e+03 1.145370189580157e+03 1.139962638551260e+03 1.145370189580157e+03
 1.128821299532996e+03 1.134446341868874e+03 1.128821299532996e+03 1.134446341868874e+03 1.139962638551260e+03 1.145370189580157e+03 1.139962638551260e+03 1.145370189580157e+03 1.052838630529923e+03 1.059768620707745e+03
 1.052838630529923e+03 1.059768620707745e+03 1.066589865232069e+03 1.073302364102894e+03 1.066589865232069e+03 1.073302364102894e+03 1.079906117320221e+03 1.086401124884051e+03 1.079906117320221e+03 1.086401124884051e+03
 1.092787386794384e+03 1.099064903051222e+03 1.092787386794384e+03 1.099064903051222e+03 1.105233673654565e+03 1.111293698604413e+03 1.105233673654565e+03 1.111293698604413e+03 1.117244977900767e+03 1.123087511543628e+03
 1.117244977900767e+03 1.123087511543628e+03 1.128821299532996e+03 1.134446341868874e+03 1.128821299532996e+03 1.134446341868874e+03 1.139962638551260e+03 1.145370189580157e+03 1.139962638551260e+03 1.145370189580157e+03
 1.052838630529923e+03 1.059768620707745e+03 1.052838630529923e+03 1.059768620707745e+03 1.066589865232069e+03 1.073302364102894e+03 1.066589865232069e+03 1.073302364102894e+03 1.079906117320221e+03 1.086401124884051e+03
 1.079906117320221e+03 1.086401124884051e+03 1.092787386794384e+03 1.099064903051222e+03 1.092787386794384e+03 1.099064903051222e+03 1.105233673654565e+03 1.111293698604413e+03 1.105233673654565e+03 1.111293698604413e+03
 1.117244977900767e+03 1.123087511543628e+03 1.117244977900767e+03 1.123087511543628e+03 1.128821299532996e+03 1.134446341868874e+03 1.128821299532996e+03 1.134446341868874e+03 1.139962638551260e+03 1.145370189580157e+03
 1.139962638551260e+03 1.145370189580157e+03 1.150668994955565e+03 1.150668994955565e+03 1.155859054677486e+03 1.155859054677486e+03 1.150668994955565e+03 1.155859054677486e+03 1.160940368745919e+03 1.160940368745919e+03
 1.165912937160867e+03 1.165912937160867e+03 1.160940368745919e+03 1.165912937160867e+03 1.150668994955565e+03 1.155859054677486e+03 1.150668994955565e+03 1.155859054677486e+03 1.160940368745919e+03 1.165912937160867e+03
 1.160940368745919e+03 1.165912937160867e+03 1.170776759922330e+03 1.170776759922330e+03 1.175531837030310e+03 1.175531837030310e+03 1.170776759922330e+03 1.175531837030310e+03 1.180178168484808e+03 1.180178168484808e+03
 1.184715754285814e+03 1.184715754285814e+03 1.180178168484808e+03 1.184715754285814e+03 1.170776759922330e+03 1.175531837030310e+03 1.170776759922330e+03 1.175531837030310e+03 1.180178168484808e+03 1.184715754285814e+03
 1.180178168484808e+03 1.184715754285814e+03 1.150668994955565e+03 1.155859054677486e+03 1.150668994955565e+03 1.155859054677486e+03 1.160940368745919e+03 1.165912937160867e+03 1.160940368745919e+03 1.165912937160867e+03
 1.170776759922330e+03 1.175531837030310e+03 1.170776759922330e+03 1.175531837030310e+03 1.180178168484808e+03 1.184715754285814e+03 1.180178168484808e+03 1.184715754285814e+03 1.150668994955565e+03 1.155859054677486e+03
 1.150668994955565e+03 1.155859054677486e+03 1.160940368745919e+03 1.165912937160867e+03 1.160940368745919e+03 1.165912937160867e+03 1.170776759922330e+03 1.175531837030310e+03 1.170776759922330e+03 1.175531837030310e+03
 1.180178168484808e+03 1.184715754285814e+03 1.180178168484808e+03 1.184715754285814e+03 1.189144594413887e+03 1.189144594413887e+03 1.189144594413887e+03 1.193464675225144e+03 1.193464675225144e+03 1.193464675225144e+03
 1.195582434199438e+03 1.195582434199438e+03 1.195582434199438e+03 1.196626487080639e+03 1.196626487080639e+03 1.197653751191231e+03 1.197653751191231e+03 1.196626487080639e+03 1.197653751191231e+03 1.198643602679070e+03
 1.198643602679070e+03 1.199537836424658e+03 1.199537836424658e+03 1.198643602679070e+03 1.199537836424658e+03 1.200181288900473e+03 1.200181288900473e+03 1.200277000088521e+03 1.200277000088521e+03 1.200181288900473e+03
 1.200277000088521e+03 1.189144594413887e+03 1.189144594413887e+03 1.193464675225144e+03 1.193464675225144e+03 1.195582434199438e+03 1.195582434199438e+03 1.196626487080639e+03 1.197653751191231e+03 1.196626487080639e+03