DF-ISE text

Info {
  version = 1.0
  type    = dataset
  dimension   = 2
  nb_vertices = 1377
  nb_edges    = 3808
  nb_faces    = 0
  nb_elements = 2448
  nb_regions  = 3
  datasets    = [ "ElectrostaticPotential" "eDensity" "hDensity" "LatticeTemperature" "EffectiveIntrinsicDensity" "IntrinsicDensity" "eEquilibriumDensity" "hEquilibriumDensity" "BandGap" "EffectiveBandGap" "BandgapNarrowing" "ValenceBandEnergy" "ConductionBandEnergy" "hEffectiveStateDensity" "eEffectiveStateDensity" "eQuasiFermiEnergy" "hQuasiFermiEnergy" "ElectronAffinity" "TotalCurrentDensity" "eCurrentDensity" "hCurrentDensity" "eMobility" "hMobility" "eVelocity" "hVelocity" "ElectricField" "eQuasiFermiPotential" "hQuasiFermiPotential" "SpaceCharge" "eGradQuasiFermi" "hGradQuasiFermi" "eEparallel" "hEparallel" "eEnormal" "hEnormal" "srhRecombination" "Band2BandGeneration" "AugerRecombination" "RadiativeRecombination" "ImpactIonization" "eImpactIonization" "hImpactIonization" "eAlphaAvalanche" "hAlphaAvalanche" "TotalRecombination" "eLifetime" "hLifetime" "SurfaceRecombination" "DopingConcentration" "DonorConcentration" "AcceptorConcentration" "DonorPlusConcentration" "AccepMinusConcentration" "QuasiFermiPotential" ]
  functions   = [ ElectrostaticPotential eDensity hDensity LatticeTemperature EffectiveIntrinsicDensity IntrinsicDensity eEquilibriumDensity hEquilibriumDensity BandGap EffectiveBandGap BandgapNarrowing ValenceBandEnergy ConductionBandEnergy hEffectiveStateDensity eEffectiveStateDensity eQuasiFermiEnergy hQuasiFermiEnergy ElectronAffinity TotalCurrentDensity eCurrentDensity hCurrentDensity eMobility hMobility eVelocity hVelocity ElectricField eQuasiFermiPotential hQuasiFermiPotential SpaceCharge eGradQuasiFermi hGradQuasiFermi eEparallel hEparallel eEnormal hEnormal srhRecombination Band2BandGeneration AugerRecombination RadiativeRecombination ImpactIonization eImpactIonization hImpactIonization eAlphaAvalanche hAlphaAvalanche TotalRecombination eLifetime hLifetime SurfaceRecombination DopingConcentration DonorConcentration AcceptorConcentration DonorPlusConcentration AccepMinusConcentration QuasiFermiPotential ]
}

Data {

  Dataset ("ElectrostaticPotential") {
    function  = ElectrostaticPotential
    type      = scalar
    dimension = 1
    location  = vertex
    validity  = [ "N-" ]
    Values (1377) {
 -4.083311392325258e-01 -4.044268194451109e-01 -4.083311392325258e-01 -4.053453002886507e-01 -4.053453002886507e-01 -4.083311392325258e-01 -4.044268194451109e-01 -4.053453002886507e-01 -3.954688345541988e-01 -3.954688345541988e-01
 -3.787007270820639e-01 -3.787007270820639e-01 -3.954688345541988e-01 -3.787007270820639e-01 -4.083311392325258e-01 -4.044268194451109e-01 -4.053453002886507e-01 -4.083311392325258e-01 -4.044268194451109e-01 -4.053453002886507e-01
 -3.954688345541988e-01 -3.787007270820639e-01 -3.954688345541988e-01 -3.787007270820639e-01 -3.550377774492487e-01 -3.550377774492487e-01 -3.550377774492487e-01 -3.244691817638212e-01 -3.244691817638212e-01 -3.244691817638212e-01
 -3.065841550272730e-01 -3.065841550272730e-01 -2.865455534260642e-01 -2.865455534260642e-01 -3.065841550272730e-01 -2.865455534260642e-01 -1.702986598712684e-01 -1.702986598712684e-01 3.991645959814750e+00 3.991645959814750e+00
 -1.702986598712683e-01 3.991645959814751e+00 -3.550377774492487e-01 -3.550377774492487e-01 -3.244691817638212e-01 -3.244691817638212e-01 -3.065841550272730e-01 -2.865455534260642e-01 -3.065841550272730e-01 -2.865455534260642e-01
 -1.702986598712684e-01 3.991645959814752e+00 -1.702986598712684e-01 3.991645959814751e+00 1.035449126947556e+01 1.035449126947556e+01 1.777696496713529e+01 1.777696496713529e+01 1.035449126947556e+01 1.777696496713529e+01
 2.567653897565873e+01 2.567653897565873e+01 2.567653897565873e+01 2.969960088100040e+01 2.969960088100040e+01 3.375214978759502e+01 3.375214978759502e+01 2.969960088100040e+01 3.375214978759502e+01 3.782126663747186e+01
 3.782126663747186e+01 3.782126663747186e+01 3.985884832465526e+01 3.985884832465526e+01 4.189767932099829e+01 4.189767932099829e+01 3.985884832465526e+01 4.189767932099829e+01 4.393714416893051e+01 4.393714416893051e+01
 4.597675012440617e+01 4.597675012440617e+01 4.393714416893051e+01 4.597675012440617e+01 4.801610398751939e+01 4.801610398751939e+01 5.005489302353435e+01 5.005489302353435e+01 4.801610398751939e+01 5.005489302353435e+01
 5.413003285454342e+01 5.413003285454342e+01 5.413003285454342e+01 5.820052100571835e+01 5.820052100571835e+01 5.820052100571835e+01 6.632495189220707e+01 6.632495189220707e+01 6.632495189220707e+01 1.035449126947556e+01
 1.777696496713529e+01 1.035449126947556e+01 1.777696496713529e+01 2.567653897565873e+01 2.567653897565873e+01 2.969960088100040e+01 3.375214978759503e+01 2.969960088100040e+01 3.375214978759503e+01 3.782126663747186e+01
 3.782126663747186e+01 3.985884832465526e+01 4.189767932099829e+01 3.985884832465526e+01 4.189767932099829e+01 4.393714416893051e+01 4.597675012440617e+01 4.393714416893051e+01 4.597675012440617e+01 4.801610398751939e+01
 5.005489302353435e+01 4.801610398751939e+01 5.005489302353435e+01 5.413003285454344e+01 5.413003285454344e+01 5.820052100571835e+01 5.820052100571835e+01 6.632495189220707e+01 6.632495189220707e+01 8.249754133048397e+01
 8.249754133048397e+01 9.856210235310265e+01 9.856210235310265e+01 8.249754133048397e+01 9.856210235310265e+01 1.145179774777312e+02 1.145179774777312e+02 1.303651110249879e+02 1.303651110249879e+02 1.145179774777312e+02
 1.303651110249879e+02 8.249754133048397e+01 8.249754133048397e+01 9.856210235310265e+01 9.856210235310265e+01 1.145179774777312e+02 1.303651110249879e+02 1.145179774777312e+02 1.303651110249879e+02 1.461034991460392e+02
 1.461034991460392e+02 1.617331416235820e+02 1.617331416235820e+02 1.461034991460392e+02 1.617331416235820e+02 1.772540384475908e+02 1.772540384475908e+02 1.926661896176876e+02 1.926661896176876e+02 1.772540384475908e+02
 1.926661896176876e+02 1.461034991460392e+02 1.617331416235820e+02 1.461034991460392e+02 1.617331416235820e+02 1.772540384475908e+02 1.926661896176876e+02 1.772540384475908e+02 1.926661896176876e+02 2.079695951338609e+02
 2.079695951338609e+02 2.231642549961106e+02 2.231642549961106e+02 2.079695951338609e+02 2.231642549961106e+02 2.382501692044370e+02 2.382501692044370e+02 2.532273377588403e+02 2.532273377588403e+02 2.382501692044370e+02
 2.532273377588403e+02 2.079695951338609e+02 2.231642549961106e+02 2.079695951338609e+02 2.231642549961106e+02 2.382501692044370e+02 2.532273377588403e+02 2.382501692044370e+02 2.532273377588403e+02 2.680957606593207e+02
 2.680957606593207e+02 2.828554379058783e+02 2.828554379058783e+02 2.680957606593207e+02 2.828554379058783e+02 2.975063694985135e+02 2.975063694985135e+02 3.120485554372264e+02 3.120485554372264e+02 2.975063694985135e+02
 3.120485554372264e+02 2.680957606593207e+02 2.828554379058783e+02 2.680957606593207e+02 2.828554379058783e+02 2.975063694985135e+02 3.120485554372264e+02 2.975063694985135e+02 3.120485554372264e+02 3.264819957220174e+02
 3.264819957220174e+02 3.408066903528865e+02 3.408066903528865e+02 3.264819957220174e+02 3.408066903528865e+02 3.550226393298342e+02 3.550226393298342e+02 3.691298426528606e+02 3.691298426528606e+02 3.550226393298342e+02
 3.691298426528606e+02 3.264819957220174e+02 3.408066903528865e+02 3.264819957220174e+02 3.408066903528865e+02 3.550226393298342e+02 3.691298426528606e+02 3.550226393298342e+02 3.691298426528606e+02 3.831283003219659e+02
 3.831283003219659e+02 3.970180123371504e+02 3.970180123371504e+02 3.831283003219659e+02 3.970180123371504e+02 4.107989786984144e+02 4.107989786984144e+02 4.244711994057581e+02 4.244711994057581e+02 4.107989786984144e+02
 4.244711994057581e+02 3.831283003219659e+02 3.970180123371504e+02 3.831283003219659e+02 3.970180123371504e+02 4.107989786984144e+02 4.244711994057581e+02 4.107989786984144e+02 4.244711994057581e+02 4.380346744591817e+02
 4.380346744591817e+02 4.514894038586857e+02 4.514894038586857e+02 4.380346744591817e+02 4.514894038586857e+02 4.648353876042702e+02 4.648353876042702e+02 4.780726256959353e+02 4.780726256959353e+02 4.648353876042702e+02
 4.780726256959353e+02 4.380346744591817e+02 4.514894038586857e+02 4.380346744591817e+02 4.514894038586857e+02 4.648353876042702e+02 4.780726256959353e+02 4.648353876042702e+02 4.780726256959353e+02 4.912011181336817e+02
 4.912011181336817e+02 5.042208649175093e+02 5.042208649175093e+02 4.912011181336817e+02 5.042208649175093e+02 5.171318660474187e+02 5.171318660474187e+02 5.299341215234099e+02 5.299341215234099e+02 5.171318660474187e+02
 5.299341215234099e+02 4.912011181336817e+02 5.042208649175093e+02 4.912011181336817e+02 5.042208649175093e+02 5.171318660474187e+02 5.299341215234099e+02 5.171318660474187e+02 5.299341215234099e+02 5.426276313454835e+02
 5.426276313454835e+02 5.552123955136396e+02 5.552123955136396e+02 5.426276313454836e+02 5.552123955136396e+02 5.676884140278786e+02 5.676884140278786e+02 5.800556868882006e+02 5.800556868882006e+02 5.676884140278786e+02
 5.800556868882006e+02 5.426276313454835e+02 5.552123955136396e+02 5.426276313454836e+02 5.552123955136396e+02 5.676884140278786e+02 5.800556868882006e+02 5.676884140278786e+02 5.800556868882006e+02 5.923142140946063e+02
 5.923142140946063e+02 6.044639956470958e+02 6.044639956470958e+02 5.923142140946063e+02 6.044639956470958e+02 6.165050315456695e+02 6.165050315456695e+02 6.284373217903276e+02 6.284373217903276e+02 6.165050315456695e+02
 6.284373217903276e+02 5.923142140946063e+02 6.044639956470958e+02 5.923142140946063e+02 6.044639956470958e+02 6.165050315456695e+02 6.284373217903276e+02 6.165050315456695e+02 6.284373217903276e+02 6.402608663810705e+02
 6.402608663810705e+02 6.519756653178987e+02 6.519756653178987e+02 6.402608663810705e+02 6.519756653178987e+02 6.635817186008125e+02 6.635817186008125e+02 6.750790262298120e+02 6.750790262298120e+02 6.635817186008125e+02
 6.750790262298120e+02 6.402608663810705e+02 6.519756653178987e+02 6.402608663810705e+02 6.519756653178987e+02 6.635817186008125e+02 6.750790262298120e+02 6.635817186008125e+02 6.750790262298120e+02 6.864675882048980e+02
 6.864675882048980e+02 6.977474045260706e+02 6.977474045260706e+02 6.864675882048980e+02 6.977474045260706e+02 7.089184751933303e+02 7.089184751933303e+02 7.199808002066774e+02 7.199808002066774e+02 7.089184751933303e+02
 7.199808002066774e+02 6.864675882048980e+02 6.977474045260706e+02 6.864675882048980e+02 6.977474045260706e+02 7.089184751933303e+02 7.199808002066774e+02 7.089184751933303e+02 7.199808002066774e+02 7.309343795661124e+02
 7.309343795661124e+02 7.417792132716356e+02 7.417792132716356e+02 7.309343795661124e+02 7.417792132716356e+02 7.525153013232475e+02 7.525153013232475e+02 7.631426437209487e+02 7.631426437209487e+02 7.525153013232475e+02
 7.631426437209487e+02 7.309343795661124e+02 7.417792132716356e+02 7.309343795661124e+02 7.417792132716356e+02 7.525153013232475e+02 7.631426437209487e+02 7.525153013232475e+02 7.631426437209487e+02 -4.083311392325258e-01
 -4.044268194451109e-01 -4.053453002886507e-01 -4.083311392325258e-01 -4.044268194451109e-01 -4.053453002886507e-01 -3.954688345541988e-01 -3.787007270820639e-01 -3.954688345541988e-01 -3.787007270820639e-01 -3.550377774492487e-01
 -3.550377774492487e-01 -3.244691817638212e-01 -3.244691817638212e-01 -3.065841550272730e-01 -2.865455534260642e-01 -3.065841550272730e-01 -2.865455534260642e-01 -1.702986598712683e-01 3.991645959814751e+00 -1.702986598712682e-01
 3.991645959814752e+00 1.035449126947556e+01 1.777696496713529e+01 1.035449126947556e+01 1.777696496713529e+01 2.567653897565873e+01 2.567653897565873e+01 2.969960088100040e+01 3.375214978759503e+01 2.969960088100040e+01
 3.375214978759503e+01 3.782126663747186e+01 3.782126663747186e+01 3.985884832465526e+01 4.189767932099829e+01 3.985884832465526e+01 4.189767932099829e+01 4.393714416893051e+01 4.597675012440617e+01 4.393714416893051e+01
 4.597675012440617e+01 4.801610398751939e+01 5.005489302353435e+01 4.801610398751939e+01 5.005489302353435e+01 5.413003285454344e+01 5.413003285454344e+01 5.820052100571835e+01 5.820052100571836e+01 6.632495189220707e+01
 6.632495189220708e+01 8.249754133048397e+01 8.249754133048397e+01 9.856210235310265e+01 9.856210235310265e+01 1.145179774777312e+02 1.303651110249879e+02 1.145179774777312e+02 1.303651110249879e+02 1.461034991460392e+02
 1.617331416235820e+02 1.461034991460392e+02 1.617331416235820e+02 1.772540384475908e+02 1.926661896176876e+02 1.772540384475908e+02 1.926661896176876e+02 2.079695951338609e+02 2.231642549961106e+02 2.079695951338609e+02
 2.231642549961106e+02 2.382501692044370e+02 2.532273377588403e+02 2.382501692044370e+02 2.532273377588403e+02 2.680957606593207e+02 2.828554379058783e+02 2.680957606593207e+02 2.828554379058783e+02 2.975063694985135e+02
 3.120485554372264e+02 2.975063694985135e+02 3.120485554372264e+02 3.264819957220174e+02 3.408066903528865e+02 3.264819957220174e+02 3.408066903528865e+02 3.550226393298342e+02 3.691298426528606e+02 3.550226393298342e+02
 3.691298426528606e+02 3.831283003219659e+02 3.970180123371504e+02 3.831283003219659e+02 3.970180123371504e+02 4.107989786984144e+02 4.244711994057581e+02 4.107989786984144e+02 4.244711994057581e+02 4.380346744591817e+02
 4.514894038586857e+02 4.380346744591817e+02 4.514894038586857e+02 4.648353876042702e+02 4.780726256959353e+02 4.648353876042702e+02 4.780726256959353e+02 4.912011181336817e+02 5.042208649175093e+02 4.912011181336817e+02
 5.042208649175093e+02 5.171318660474187e+02 5.299341215234099e+02 5.171318660474187e+02 5.299341215234099e+02 5.426276313454835e+02 5.552123955136396e+02 5.426276313454835e+02 5.552123955136396e+02 5.676884140278786e+02
 5.800556868882006e+02 5.676884140278786e+02 5.800556868882006e+02 5.923142140946063e+02 6.044639956470958e+02 5.923142140946063e+02 6.044639956470958e+02 6.165050315456695e+02 6.284373217903276e+02 6.165050315456695e+02
 6.284373217903276e+02 6.402608663810705e+02 6.519756653178987e+02 6.402608663810705e+02 6.519756653178987e+02 6.635817186008125e+02 6.750790262298120e+02 6.635817186008125e+02 6.750790262298120e+02 6.864675882048980e+02
 6.977474045260706e+02 6.864675882048980e+02 6.977474045260706e+02 7.089184751933303e+02 7.199808002066774e+02 7.089184751933303e+02 7.199808002066774e+02 7.309343795661124e+02 7.417792132716356e+02 7.309343795661124e+02
 7.417792132716356e+02 7.525153013232475e+02 7.631426437209487e+02 7.525153013232475e+02 7.631426437209487e+02 -4.083311392325258e-01 -4.044268194451109e-01 -4.053453002886507e-01 -4.083311392325258e-01 -4.053453002886507e-01
 -3.954688345541988e-01 -3.787007270820639e-01 -3.954688345541988e-01 -3.787007270820639e-01 -3.550377774492487e-01 -3.550377774492487e-01 -3.244691817638212e-01 -3.244691817638212e-01 -3.065841550272730e-01 -2.865455534260642e-01
 -3.065841550272730e-01 -2.865455534260642e-01 -1.702986598712685e-01 3.991645959814750e+00 -1.702986598712684e-01 3.991645959814750e+00 1.035449126947556e+01 1.777696496713529e+01 1.035449126947556e+01 1.777696496713529e+01
 2.567653897565873e+01 2.567653897565873e+01 2.969960088100040e+01 3.375214978759502e+01 2.969960088100040e+01 3.375214978759503e+01 3.782126663747186e+01 3.985884832465526e+01 4.189767932099829e+01 4.393714416893051e+01
 4.597675012440617e+01 4.801610398751939e+01 5.005489302353435e+01 5.413003285454342e+01 5.820052100571835e+01 6.632495189220707e+01 3.782126663747186e+01 3.985884832465526e+01 4.189767932099829e+01 4.393714416893051e+01
 4.597675012440617e+01 4.801610398751939e+01 5.005489302353435e+01 5.413003285454344e+01 5.820052100571835e+01 6.632495189220707e+01 8.249754133048397e+01 9.856210235310265e+01 8.249754133048397e+01 9.856210235310265e+01
 1.145179774777312e+02 1.303651110249879e+02 1.145179774777312e+02 1.303651110249879e+02 1.461034991460392e+02 1.617331416235820e+02 1.461034991460392e+02 1.617331416235820e+02 1.772540384475908e+02 1.926661896176876e+02
 1.772540384475908e+02 1.926661896176876e+02 2.079695951338609e+02 2.231642549961106e+02 2.079695951338609e+02 2.231642549961106e+02 2.382501692044370e+02 2.532273377588403e+02 2.382501692044370e+02 2.532273377588403e+02
 2.680957606593207e+02 2.828554379058783e+02 2.680957606593207e+02 2.828554379058783e+02 2.975063694985135e+02 3.120485554372264e+02 2.975063694985135e+02 3.120485554372264e+02 3.264819957220174e+02 3.408066903528865e+02
 3.264819957220174e+02 3.408066903528865e+02 3.550226393298342e+02 3.691298426528606e+02 3.550226393298342e+02 3.691298426528606e+02 3.831283003219659e+02 3.970180123371504e+02 3.831283003219659e+02 3.970180123371504e+02
 4.107989786984144e+02 4.244711994057581e+02 4.107989786984144e+02 4.244711994057581e+02 4.380346744591817e+02 4.514894038586857e+02 4.380346744591817e+02 4.514894038586857e+02 4.648353876042702e+02 4.780726256959353e+02
 4.648353876042702e+02 4.780726256959353e+02 4.912011181336817e+02 5.042208649175093e+02 4.912011181336817e+02 5.042208649175093e+02 5.171318660474187e+02 5.299341215234099e+02 5.171318660474187e+02 5.299341215234099e+02
 5.426276313454835e+02 5.552123955136396e+02 5.426276313454835e+02 5.552123955136396e+02 5.676884140278786e+02 5.800556868882006e+02 5.676884140278786e+02 5.800556868882006e+02 5.923142140946063e+02 6.044639956470958e+02
 5.923142140946063e+02 6.044639956470958e+02 6.165050315456695e+02 6.284373217903276e+02 6.165050315456695e+02 6.284373217903276e+02 6.402608663810705e+02 6.519756653178987e+02 6.402608663810705e+02 6.519756653178987e+02
 6.635817186008125e+02 6.750790262298120e+02 6.635817186008125e+02 6.750790262298120e+02 6.864675882048980e+02 6.977474045260706e+02 6.864675882048980e+02 6.977474045260706e+02 7.089184751933303e+02 7.199808002066774e+02
 7.089184751933303e+02 7.199808002066774e+02 7.309343795661124e+02 7.417792132716356e+02 7.309343795661124e+02 7.417792132716356e+02 7.525153013232475e+02 7.631426437209487e+02 7.525153013232475e+02 7.631426437209487e+02
 7.736612404647392e+02 7.736612404647392e+02 7.840710915546198e+02 7.840710915546198e+02 7.736612404647392e+02 7.840710915546198e+02 7.943721969905910e+02 7.943721969905910e+02 8.045645567726528e+02 8.045645567726528e+02
 7.943721969905910e+02 8.045645567726528e+02 7.736612404647392e+02 7.840710915546198e+02 7.736612404647392e+02 7.840710915546198e+02 7.943721969905910e+02 8.045645567726528e+02 7.943721969905910e+02 8.045645567726528e+02
 8.146481709008062e+02 8.146481709008062e+02 8.246230393750515e+02 8.246230393750515e+02 8.146481709008062e+02 8.246230393750515e+02 8.344891621953890e+02 8.344891621953890e+02 8.442465393618195e+02 8.442465393618195e+02
 8.344891621953890e+02 8.442465393618195e+02 8.146481709008062e+02 8.246230393750515e+02 8.146481709008062e+02 8.246230393750515e+02 8.344891621953890e+02 8.442465393618195e+02 8.344891621953890e+02 8.442465393618195e+02
 8.538951708743434e+02 8.538951708743434e+02 8.634350567329612e+02 8.634350567329612e+02 8.538951708743434e+02 8.634350567329612e+02 8.728661969376734e+02 8.728661969376734e+02 8.821885914884806e+02 8.821885914884806e+02
 8.728661969376734e+02 8.821885914884806e+02 8.538951708743434e+02 8.634350567329612e+02 8.538951708743434e+02 8.634350567329612e+02 8.728661969376734e+02 8.821885914884806e+02 8.728661969376734e+02 8.821885914884806e+02
 8.914022403853836e+02 8.914022403853836e+02 9.005071436283826e+02 9.005071436283826e+02 8.914022403853836e+02 9.005071436283826e+02 9.095033012174783e+02 9.095033012174783e+02 9.183907131526714e+02 9.183907131526714e+02
 9.095033012174783e+02 9.183907131526714e+02 8.914022403853836e+02 9.005071436283826e+02 8.914022403853836e+02 9.005071436283826e+02 9.095033012174783e+02 9.183907131526714e+02 9.095033012174783e+02 9.183907131526714e+02
 9.271693794339626e+02 9.271693794339626e+02 9.358393000613523e+02 9.358393000613523e+02 9.271693794339626e+02 9.358393000613523e+02 9.444004750348415e+02 9.444004750348415e+02 9.528529043544306e+02 9.528529043544306e+02
 9.444004750348415e+02 9.528529043544306e+02 9.271693794339626e+02 9.358393000613523e+02 9.271693794339626e+02 9.358393000613523e+02 9.444004750348415e+02 9.528529043544306e+02 9.444004750348415e+02 9.528529043544306e+02
 9.611965880201203e+02 9.611965880201203e+02 9.694315260319115e+02 9.694315260319115e+02 9.611965880201203e+02 9.694315260319115e+02 9.775577183898047e+02 9.775577183898047e+02 9.855751650938009e+02 9.855751650938009e+02
 9.775577183898047e+02 9.855751650938009e+02 9.611965880201203e+02 9.694315260319115e+02 9.611965880201203e+02 9.694315260319115e+02 9.775577183898047e+02 9.855751650938009e+02 9.775577183898047e+02 9.855751650938009e+02
 9.934838661439005e+02 9.934838661439005e+02 1.001283821540105e+03 1.001283821540105e+03 9.934838661439005e+02 1.001283821540105e+03 1.008975031282414e+03 1.008975031282414e+03 1.016557495370829e+03 1.016557495370829e+03
 1.008975031282414e+03 1.016557495370829e+03 9.934838661439005e+02 1.001283821540105e+03 9.934838661439005e+02 1.001283821540105e+03 1.008975031282414e+03 1.016557495370829e+03 1.008975031282414e+03 1.016557495370829e+03
 1.024031213805352e+03 1.024031213805352e+03 1.031396186585982e+03 1.031396186585982e+03 1.024031213805352e+03 1.031396186585982e+03 1.038652413712721e+03 1.038652413712721e+03 1.045799895185569e+03 1.045799895185569e+03
 1.038652413712721e+03 1.045799895185569e+03 1.024031213805352e+03 1.031396186585982e+03 1.024031213805352e+03 1.031396186585982e+03 1.038652413712721e+03 1.045799895185569e+03 1.038652413712721e+03 1.045799895185569e+03
 7.736612404647392e+02 7.840710915546198e+02 7.736612404647392e+02 7.840710915546198e+02 7.943721969905910e+02 8.045645567726528e+02 7.943721969905910e+02 8.045645567726528e+02 8.146481709008062e+02 8.246230393750515e+02
 8.146481709008062e+02 8.246230393750515e+02 8.344891621953890e+02 8.442465393618195e+02 8.344891621953890e+02 8.442465393618195e+02 8.538951708743434e+02 8.634350567329612e+02 8.538951708743434e+02 8.634350567329612e+02
 8.728661969376734e+02 8.821885914884806e+02 8.728661969376734e+02 8.821885914884806e+02 8.914022403853836e+02 9.005071436283826e+02 8.914022403853836e+02 9.005071436283826e+02 9.095033012174783e+02 9.183907131526714e+02
 9.095033012174783e+02 9.183907131526714e+02 9.271693794339626e+02 9.358393000613523e+02 9.271693794339626e+02 9.358393000613523e+02 9.444004750348415e+02 9.528529043544306e+02 9.444004750348415e+02 9.528529043544306e+02
 9.611965880201203e+02 9.694315260319115e+02 9.611965880201203e+02 9.694315260319115e+02 9.775577183898047e+02 9.855751650938009e+02 9.775577183898047e+02 9.855751650938009e+02 9.934838661439005e+02 1.001283821540105e+03
 9.934838661439005e+02 1.001283821540105e+03 1.008975031282414e+03 1.016557495370829e+03 1.008975031282414e+03 1.016557495370829e+03 1.024031213805352e+03 1.031396186585982e+03 1.024031213805352e+03 1.031396186585982e+03
 1.038652413712721e+03 1.045799895185569e+03 1.038652413712721e+03 1.045799895185569e+03 7.736612404647392e+02 7.840710915546198e+02 7.736612404647392e+02 7.840710915546198e+02 7.943721969905910e+02 8.045645567726528e+02
 7.943721969905910e+02 8.045645567726528e+02 8.146481709008062e+02 8.246230393750515e+02 8.146481709008062e+02 8.246230393750515e+02 8.344891621953890e+02 8.442465393618195e+02 8.344891621953890e+02 8.442465393618195e+02
 8.538951708743434e+02 8.634350567329612e+02 8.538951708743434e+02 8.634350567329612e+02 8.728661969376734e+02 8.821885914884806e+02 8.728661969376734e+02 8.821885914884806e+02 8.914022403853836e+02 9.005071436283826e+02
 8.914022403853836e+02 9.005071436283826e+02 9.095033012174783e+02 9.183907131526714e+02 9.095033012174783e+02 9.183907131526714e+02 9.271693794339626e+02 9.358393000613523e+02 9.271693794339626e+02 9.358393000613523e+02
 9.444004750348415e+02 9.528529043544306e+02 9.444004750348415e+02 9.528529043544306e+02 9.611965880201203e+02 9.694315260319115e+02 9.611965880201203e+02 9.694315260319115e+02 9.775577183898047e+02 9.855751650938009e+02
 9.775577183898047e+02 9.855751650938009e+02 9.934838661439005e+02 1.001283821540105e+03 9.934838661439005e+02 1.001283821540105e+03 1.008975031282414e+03 1.016557495370829e+03 1.008975031282414e+03 1.016557495370829e+03
 1.024031213805352e+03 1.031396186585982e+03 1.024031213805352e+03 1.031396186585982e+03 1.038652413712721e+03 1.045799895185569e+03 1.038652413712721e+03 1.045799895185569e+03 1.052838631004529e+03 1.052838631004529e+03
 1.059768621169600e+03 1.059768621169600e+03 1.052838631004529e+03 1.059768621169600e+03 1.066589865680783e+03 1.066589865680783e+03 1.073302364538080e+03 1.073302364538080e+03 1.066589865680783e+03 1.073302364538080e+03
 1.052838631004529e+03 1.059768621169600e+03 1.052838631004529e+03 1.059768621169600e+03 1.066589865680783e+03 1.073302364538080e+03 1.066589865680783e+03 1.073302364538080e+03 1.079906117741492e+03 1.079906117741492e+03
 1.086401125291020e+03 1.086401125291020e+03 1.079906117741492e+03 1.086401125291020e+03 1.092787387186666e+03 1.092787387186666e+03 1.099064903428429e+03 1.099064903428429e+03 1.092787387186666e+03 1.099064903428429e+03
 1.079906117741492e+03 1.086401125291020e+03 1.079906117741492e+03 1.086401125291020e+03 1.092787387186666e+03 1.099064903428429e+03 1.092787387186666e+03 1.099064903428429e+03 1.105233674016313e+03 1.105233674016313e+03
 1.111293698950317e+03 1.111293698950317e+03 1.105233674016313e+03 1.111293698950317e+03 1.117244978230443e+03 1.117244978230443e+03 1.123087511856693e+03 1.123087511856693e+03 1.117244978230443e+03 1.123087511856693e+03
 1.105233674016313e+03 1.111293698950317e+03 1.105233674016313e+03 1.111293698950317e+03 1.117244978230443e+03 1.123087511856693e+03 1.117244978230443e+03 1.123087511856693e+03 1.128821299829069e+03 1.128821299829069e+03
 1.134446342147571e+03 1.134446342147571e+03 1.128821299829069e+03 1.134446342147571e+03 1.139962638812201e+03 1.139962638812201e+03 1.145370189822961e+03 1.145370189822961e+03 1.139962638812201e+03 1.145370189822961e+03
 1.128821299829069e+03 1.134446342147571e+03 1.128821299829069e+03 1.134446342147571e+03 1.139962638812201e+03 1.145370189822961e+03 1.139962638812201e+03 1.145370189822961e+03 1.052838631004529e+03 1.059768621169600e+03
 1.052838631004529e+03 1.059768621169600e+03 1.066589865680783e+03 1.073302364538080e+03 1.066589865680783e+03 1.073302364538080e+03 1.079906117741492e+03 1.086401125291020e+03 1.079906117741492e+03 1.086401125291020e+03
 1.092787387186666e+03 1.099064903428429e+03 1.092787387186666e+03 1.099064903428429e+03 1.105233674016313e+03 1.111293698950317e+03 1.105233674016313e+03 1.111293698950317e+03 1.117244978230443e+03 1.123087511856693e+03
 1.117244978230443e+03 1.123087511856693e+03 1.128821299829069e+03 1.134446342147571e+03 1.128821299829069e+03 1.134446342147571e+03 1.139962638812201e+03 1.145370189822961e+03 1.139962638812201e+03 1.145370189822961e+03
 1.052838631004529e+03 1.059768621169600e+03 1.052838631004529e+03 1.059768621169600e+03 1.066589865680783e+03 1.073302364538080e+03 1.066589865680783e+03 1.073302364538080e+03 1.079906117741492e+03 1.086401125291020e+03
 1.079906117741492e+03 1.086401125291020e+03 1.092787387186666e+03 1.099064903428429e+03 1.092787387186666e+03 1.099064903428429e+03 1.105233674016313e+03 1.111293698950317e+03 1.105233674016313e+03 1.111293698950317e+03
 1.117244978230443e+03 1.123087511856693e+03 1.117244978230443e+03 1.123087511856693e+03 1.128821299829069e+03 1.134446342147571e+03 1.128821299829069e+03 1.134446342147571e+03 1.139962638812201e+03 1.145370189822961e+03
 1.139962638812201e+03 1.145370189822961e+03 1.150668995179853e+03 1.150668995179853e+03 1.155859054882878e+03 1.155859054882878e+03 1.150668995179853e+03 1.155859054882878e+03 1.160940368932039e+03 1.160940368932039e+03
 1.165912937327336e+03 1.165912937327336e+03 1.160940368932039e+03 1.165912937327336e+03 1.150668995179853e+03 1.155859054882878e+03 1.150668995179853e+03 1.155859054882878e+03 1.160940368932039e+03 1.165912937327336e+03
 1.160940368932039e+03 1.165912937327336e+03 1.170776760068773e+03 1.170776760068773e+03 1.175531837156351e+03 1.175531837156351e+03 1.170776760068773e+03 1.175531837156351e+03 1.180178168590073e+03 1.180178168590073e+03
 1.184715754369928e+03 1.184715754369928e+03 1.180178168590073e+03 1.184715754369928e+03 1.170776760068773e+03 1.175531837156351e+03 1.170776760068773e+03 1.175531837156351e+03 1.180178168590073e+03 1.184715754369928e+03
 1.180178168590073e+03 1.184715754369928e+03 1.150668995179853e+03 1.155859054882878e+03 1.150668995179853e+03 1.155859054882878e+03 1.160940368932039e+03 1.165912937327336e+03 1.160940368932039e+03 1.165912937327336e+03
 1.170776760068773e+03 1.175531837156351e+03 1.170776760068773e+03 1.175531837156351e+03 1.180178168590073e+03 1.184715754369928e+03 1.180178168590073e+03 1.184715754369928e+03 1.150668995179853e+03 1.155859054882878e+03
 1.150668995179853e+03 1.155859054882878e+03 1.160940368932039e+03 1.165912937327336e+03 1.160940368932039e+03 1.165912937327336e+03 1.170776760068773e+03 1.175531837156351e+03 1.170776760068773e+03 1.175531837156351e+03
 1.180178168590073e+03 1.184715754369928e+03 1.180178168590073e+03 1.184715754369928e+03 1.189144594476480e+03 1.189144594476480e+03 1.189144594476480e+03 1.193464675265843e+03 1.193464675265843e+03 1.193464675265843e+03
 1.195582434229052e+03 1.195582434229052e+03 1.195582434229052e+03 1.196626487104675e+03 1.196626487104675e+03 1.197653751209666e+03 1.197653751209666e+03 1.196626487104675e+03 1.197653751209666e+03 1.198643602691882e+03
 1.198643602691882e+03 1.199537836431826e+03 1.199537836431826e+03 1.198643602691882e+03 1.199537836431826e+03 1.200181288902000e+03 1.200181288902000e+03 1.200277000088554e+03 1.200277000088554e+03 1.200181288902000e+03
 1.200277000088554e+03 1.189144594476480e+03 1.189144594476480e+03 1.193464675265843e+03 1.193464675265843e+03 1.195582434229052e+03 1.195582434229052e+03 1.196626487104675e+03 1.197653751209666e+03 1.196626487104675e+03