DF-ISE text

Info {
  version = 1.0
  type    = dataset
  dimension   = 2
  nb_vertices = 1377
  nb_edges    = 3808
  nb_faces    = 0
  nb_elements = 2448
  nb_regions  = 3
  datasets    = [ "ElectrostaticPotential" "eDensity" "hDensity" "LatticeTemperature" "EffectiveIntrinsicDensity" "IntrinsicDensity" "eEquilibriumDensity" "hEquilibriumDensity" "BandGap" "EffectiveBandGap" "BandgapNarrowing" "ValenceBandEnergy" "ConductionBandEnergy" "hEffectiveStateDensity" "eEffectiveStateDensity" "eQuasiFermiEnergy" "hQuasiFermiEnergy" "ElectronAffinity" "TotalCurrentDensity" "eCurrentDensity" "hCurrentDensity" "eMobility" "hMobility" "eVelocity" "hVelocity" "ElectricField" "eQuasiFermiPotential" "hQuasiFermiPotential" "SpaceCharge" "eGradQuasiFermi" "hGradQuasiFermi" "eEparallel" "hEparallel" "eEnormal" "hEnormal" "srhRecombination" "Band2BandGeneration" "AugerRecombination" "RadiativeRecombination" "ImpactIonization" "eImpactIonization" "hImpactIonization" "eAlphaAvalanche" "hAlphaAvalanche" "TotalRecombination" "eLifetime" "hLifetime" "SurfaceRecombination" "DopingConcentration" "DonorConcentration" "AcceptorConcentration" "DonorPlusConcentration" "AccepMinusConcentration" "QuasiFermiPotential" ]
  functions   = [ ElectrostaticPotential eDensity hDensity LatticeTemperature EffectiveIntrinsicDensity IntrinsicDensity eEquilibriumDensity hEquilibriumDensity BandGap EffectiveBandGap BandgapNarrowing ValenceBandEnergy ConductionBandEnergy hEffectiveStateDensity eEffectiveStateDensity eQuasiFermiEnergy hQuasiFermiEnergy ElectronAffinity TotalCurrentDensity eCurrentDensity hCurrentDensity eMobility hMobility eVelocity hVelocity ElectricField eQuasiFermiPotential hQuasiFermiPotential SpaceCharge eGradQuasiFermi hGradQuasiFermi eEparallel hEparallel eEnormal hEnormal srhRecombination Band2BandGeneration AugerRecombination RadiativeRecombination ImpactIonization eImpactIonization hImpactIonization eAlphaAvalanche hAlphaAvalanche TotalRecombination eLifetime hLifetime SurfaceRecombination DopingConcentration DonorConcentration AcceptorConcentration DonorPlusConcentration AccepMinusConcentration QuasiFermiPotential ]
}

Data {

  Dataset ("ElectrostaticPotential") {
    function  = ElectrostaticPotential
    type      = scalar
    dimension = 1
    location  = vertex
    validity  = [ "N-" ]
    Values (1377) {
 -4.083311392321415e-01 -4.044268194451109e-01 -4.083311392321415e-01 -4.053453002878870e-01 -4.053453002878870e-01 -4.083311392321415e-01 -4.044268194451109e-01 -4.053453002878870e-01 -3.954688345529760e-01 -3.954688345529760e-01
 -3.787007270801602e-01 -3.787007270801602e-01 -3.954688345529760e-01 -3.787007270801602e-01 -4.083311392321415e-01 -4.044268194451109e-01 -4.053453002878870e-01 -4.083311392321415e-01 -4.044268194451109e-01 -4.053453002878870e-01
 -3.954688345529760e-01 -3.787007270801602e-01 -3.954688345529760e-01 -3.787007270801602e-01 -3.550377774461077e-01 -3.550377774461077e-01 -3.550377774461077e-01 -3.244691817579251e-01 -3.244691817579251e-01 -3.244691817579251e-01
 -3.065841550186512e-01 -3.065841550186512e-01 -2.865455534125925e-01 -2.865455534125925e-01 -3.065841550186512e-01 -2.865455534125925e-01 -1.702986598239878e-01 -1.702986598239878e-01 3.991645959752521e+00 3.991645959752521e+00
 -1.702986598239878e-01 3.991645959752521e+00 -3.550377774461077e-01 -3.550377774461077e-01 -3.244691817579251e-01 -3.244691817579251e-01 -3.065841550186512e-01 -2.865455534125925e-01 -3.065841550186512e-01 -2.865455534125925e-01
 -1.702986598239879e-01 3.991645959752521e+00 -1.702986598239878e-01 3.991645959752521e+00 1.035449126929191e+01 1.035449126929191e+01 1.777696496682247e+01 1.777696496682247e+01 1.035449126929191e+01 1.777696496682247e+01
 2.567653897521017e+01 2.567653897521017e+01 2.567653897521017e+01 2.969960088048169e+01 2.969960088048169e+01 3.375214978700473e+01 3.375214978700473e+01 2.969960088048169e+01 3.375214978700473e+01 3.782126663680855e+01
 3.782126663680855e+01 3.782126663680855e+01 3.985884832395492e+01 3.985884832395492e+01 4.189767932026057e+01 4.189767932026057e+01 3.985884832395492e+01 4.189767932026057e+01 4.393714416815508e+01 4.393714416815508e+01
 4.597675012359269e+01 4.597675012359269e+01 4.393714416815508e+01 4.597675012359269e+01 4.801610398666753e+01 4.801610398666753e+01 5.005489302264380e+01 5.005489302264380e+01 4.801610398666753e+01 5.005489302264380e+01
 5.413003285357446e+01 5.413003285357446e+01 5.413003285357446e+01 5.820052100466970e+01 5.820052100466970e+01 5.820052100466970e+01 6.632495189099528e+01 6.632495189099528e+01 6.632495189099528e+01 1.035449126929191e+01
 1.777696496682247e+01 1.035449126929191e+01 1.777696496682247e+01 2.567653897521017e+01 2.567653897521017e+01 2.969960088048169e+01 3.375214978700473e+01 2.969960088048169e+01 3.375214978700473e+01 3.782126663680855e+01
 3.782126663680855e+01 3.985884832395492e+01 4.189767932026057e+01 3.985884832395492e+01 4.189767932026057e+01 4.393714416815508e+01 4.597675012359269e+01 4.393714416815509e+01 4.597675012359269e+01 4.801610398666753e+01
 5.005489302264380e+01 4.801610398666753e+01 5.005489302264380e+01 5.413003285357446e+01 5.413003285357446e+01 5.820052100466970e+01 5.820052100466970e+01 6.632495189099528e+01 6.632495189099528e+01 8.249754132893135e+01
 8.249754132893135e+01 9.856210235119102e+01 9.856210235119102e+01 8.249754132893135e+01 9.856210235119102e+01 1.145179774754438e+02 1.145179774754438e+02 1.303651110223094e+02 1.303651110223094e+02 1.145179774754438e+02
 1.303651110223094e+02 8.249754132893135e+01 8.249754132893135e+01 9.856210235119100e+01 9.856210235119100e+01 1.145179774754438e+02 1.303651110223094e+02 1.145179774754438e+02 1.303651110223094e+02 1.461034991429556e+02
 1.461034991429556e+02 1.617331416200807e+02 1.617331416200807e+02 1.461034991429556e+02 1.617331416200807e+02 1.772540384436602e+02 1.772540384436602e+02 1.926661896133175e+02 1.926661896133175e+02 1.772540384436602e+02
 1.926661896133175e+02 1.461034991429556e+02 1.617331416200807e+02 1.461034991429556e+02 1.617331416200807e+02 1.772540384436602e+02 1.926661896133175e+02 1.772540384436602e+02 1.926661896133175e+02 2.079695951290423e+02
 2.079695951290423e+02 2.231642549908356e+02 2.231642549908356e+02 2.079695951290423e+02 2.231642549908356e+02 2.382501691986988e+02 2.382501691986988e+02 2.532273377526328e+02 2.532273377526328e+02 2.382501691986988e+02
 2.532273377526328e+02 2.079695951290423e+02 2.231642549908356e+02 2.079695951290423e+02 2.231642549908356e+02 2.382501691986988e+02 2.532273377526328e+02 2.382501691986988e+02 2.532273377526328e+02 2.680957606526393e+02
 2.680957606526393e+02 2.828554378987192e+02 2.828554378987192e+02 2.680957606526393e+02 2.828554378987192e+02 2.975063694908737e+02 2.975063694908737e+02 3.120485554291038e+02 3.120485554291038e+02 2.975063694908737e+02
 3.120485554291038e+02 2.680957606526393e+02 2.828554378987192e+02 2.680957606526393e+02 2.828554378987192e+02 2.975063694908737e+02 3.120485554291038e+02 2.975063694908737e+02 3.120485554291038e+02 3.264819957134108e+02
 3.264819957134108e+02 3.408066903437956e+02 3.408066903437956e+02 3.264819957134108e+02 3.408066903437956e+02 3.550226393202593e+02 3.550226393202593e+02 3.691298426428028e+02 3.691298426428028e+02 3.550226393202593e+02
 3.691298426428028e+02 3.264819957134108e+02 3.408066903437956e+02 3.264819957134108e+02 3.408066903437956e+02 3.550226393202593e+02 3.691298426428028e+02 3.550226393202593e+02 3.691298426428028e+02 3.831283003114270e+02
 3.831283003114270e+02 3.970180123261330e+02 3.970180123261330e+02 3.831283003114270e+02 3.970180123261330e+02 4.107989786869216e+02 4.107989786869216e+02 4.244711993937937e+02 4.244711993937937e+02 4.107989786869216e+02
 4.244711993937937e+02 3.831283003114270e+02 3.970180123261330e+02 3.831283003114270e+02 3.970180123261330e+02 4.107989786869216e+02 4.244711993937937e+02 4.107989786869216e+02 4.244711993937937e+02 4.380346744467501e+02
 4.380346744467501e+02 4.514894038457917e+02 4.514894038457917e+02 4.380346744467501e+02 4.514894038457917e+02 4.648353875909194e+02 4.648353875909194e+02 4.780726256821336e+02 4.780726256821336e+02 4.648353875909194e+02
 4.780726256821336e+02 4.380346744467501e+02 4.514894038457917e+02 4.380346744467501e+02 4.514894038457917e+02 4.648353875909194e+02 4.780726256821336e+02 4.648353875909194e+02 4.780726256821336e+02 4.912011181194355e+02
 4.912011181194355e+02 5.042208649028257e+02 5.042208649028257e+02 4.912011181194355e+02 5.042208649028257e+02 5.171318660323049e+02 5.171318660323049e+02 5.299341215078737e+02 5.299341215078737e+02 5.171318660323049e+02
 5.299341215078737e+02 4.912011181194355e+02 5.042208649028257e+02 4.912011181194355e+02 5.042208649028257e+02 5.171318660323049e+02 5.299341215078737e+02 5.171318660323049e+02 5.299341215078738e+02 5.426276313295332e+02
 5.426276313295332e+02 5.552123954972836e+02 5.552123954972836e+02 5.426276313295332e+02 5.552123954972836e+02 5.676884140111259e+02 5.676884140111259e+02 5.800556868710607e+02 5.800556868710607e+02 5.676884140111259e+02
 5.800556868710607e+02 5.426276313295332e+02 5.552123954972836e+02 5.426276313295332e+02 5.552123954972836e+02 5.676884140111259e+02 5.800556868710607e+02 5.676884140111259e+02 5.800556868710607e+02 5.923142140770886e+02
 5.923142140770886e+02 6.044639956292106e+02 6.044639956292106e+02 5.923142140770886e+02 6.044639956292106e+02 6.165050315274268e+02 6.165050315274268e+02 6.284373217717381e+02 6.284373217717381e+02 6.165050315274268e+02
 6.284373217717381e+02 5.923142140770886e+02 6.044639956292106e+02 5.923142140770886e+02 6.044639956292106e+02 6.165050315274268e+02 6.284373217717381e+02 6.165050315274268e+02 6.284373217717381e+02 6.402608663621452e+02
 6.402608663621452e+02 6.519756652986487e+02 6.519756652986487e+02 6.402608663621452e+02 6.519756652986487e+02 6.635817185812491e+02 6.635817185812491e+02 6.750790262099471e+02 6.750790262099471e+02 6.635817185812491e+02
 6.750790262099471e+02 6.402608663621452e+02 6.519756652986487e+02 6.402608663621452e+02 6.519756652986487e+02 6.635817185812491e+02 6.750790262099471e+02 6.635817185812491e+02 6.750790262099471e+02 6.864675881847434e+02
 6.864675881847434e+02 6.977474045056385e+02 6.977474045056385e+02 6.864675881847434e+02 6.977474045056385e+02 7.089184751726332e+02 7.089184751726332e+02 7.199808001857280e+02 7.199808001857280e+02 7.089184751726332e+02
 7.199808001857280e+02 6.864675881847434e+02 6.977474045056385e+02 6.864675881847434e+02 6.977474045056385e+02 7.089184751726332e+02 7.199808001857280e+02 7.089184751726332e+02 7.199808001857280e+02 7.309343795449234e+02
 7.309343795449234e+02 7.417792132502203e+02 7.417792132502203e+02 7.309343795449234e+02 7.417792132502203e+02 7.525153013016193e+02 7.525153013016193e+02 7.631426436991209e+02 7.631426436991209e+02 7.525153013016193e+02
 7.631426436991209e+02 7.309343795449234e+02 7.417792132502203e+02 7.309343795449234e+02 7.417792132502203e+02 7.525153013016193e+02 7.631426436991209e+02 7.525153013016193e+02 7.631426436991209e+02 -4.083311392321415e-01
 -4.044268194451109e-01 -4.053453002878870e-01 -4.083311392321415e-01 -4.044268194451109e-01 -4.053453002878870e-01 -3.954688345529760e-01 -3.787007270801602e-01 -3.954688345529760e-01 -3.787007270801602e-01 -3.550377774461077e-01
 -3.550377774461077e-01 -3.244691817579251e-01 -3.244691817579251e-01 -3.065841550186512e-01 -2.865455534125925e-01 -3.065841550186512e-01 -2.865455534125925e-01 -1.702986598239878e-01 3.991645959752521e+00 -1.702986598239877e-01
 3.991645959752521e+00 1.035449126929191e+01 1.777696496682247e+01 1.035449126929191e+01 1.777696496682247e+01 2.567653897521017e+01 2.567653897521017e+01 2.969960088048169e+01 3.375214978700473e+01 2.969960088048169e+01
 3.375214978700473e+01 3.782126663680855e+01 3.782126663680855e+01 3.985884832395492e+01 4.189767932026057e+01 3.985884832395492e+01 4.189767932026057e+01 4.393714416815509e+01 4.597675012359269e+01 4.393714416815509e+01
 4.597675012359269e+01 4.801610398666753e+01 5.005489302264380e+01 4.801610398666753e+01 5.005489302264380e+01 5.413003285357447e+01 5.413003285357447e+01 5.820052100466970e+01 5.820052100466970e+01 6.632495189099528e+01
 6.632495189099528e+01 8.249754132893135e+01 8.249754132893135e+01 9.856210235119100e+01 9.856210235119100e+01 1.145179774754438e+02 1.303651110223094e+02 1.145179774754438e+02 1.303651110223094e+02 1.461034991429556e+02
 1.617331416200807e+02 1.461034991429556e+02 1.617331416200807e+02 1.772540384436602e+02 1.926661896133175e+02 1.772540384436602e+02 1.926661896133175e+02 2.079695951290423e+02 2.231642549908356e+02 2.079695951290423e+02
 2.231642549908356e+02 2.382501691986988e+02 2.532273377526328e+02 2.382501691986988e+02 2.532273377526328e+02 2.680957606526393e+02 2.828554378987192e+02 2.680957606526393e+02 2.828554378987192e+02 2.975063694908737e+02
 3.120485554291038e+02 2.975063694908737e+02 3.120485554291038e+02 3.264819957134108e+02 3.408066903437956e+02 3.264819957134108e+02 3.408066903437956e+02 3.550226393202593e+02 3.691298426428028e+02 3.550226393202593e+02
 3.691298426428028e+02 3.831283003114270e+02 3.970180123261330e+02 3.831283003114270e+02 3.970180123261330e+02 4.107989786869216e+02 4.244711993937937e+02 4.107989786869216e+02 4.244711993937937e+02 4.380346744467501e+02
 4.514894038457917e+02 4.380346744467501e+02 4.514894038457917e+02 4.648353875909194e+02 4.780726256821336e+02 4.648353875909194e+02 4.780726256821336e+02 4.912011181194355e+02 5.042208649028257e+02 4.912011181194355e+02
 5.042208649028257e+02 5.171318660323049e+02 5.299341215078738e+02 5.171318660323049e+02 5.299341215078738e+02 5.426276313295332e+02 5.552123954972836e+02 5.426276313295332e+02 5.552123954972836e+02 5.676884140111259e+02
 5.800556868710607e+02 5.676884140111259e+02 5.800556868710607e+02 5.923142140770886e+02 6.044639956292106e+02 5.923142140770886e+02 6.044639956292106e+02 6.165050315274268e+02 6.284373217717381e+02 6.165050315274268e+02
 6.284373217717381e+02 6.402608663621452e+02 6.519756652986487e+02 6.402608663621452e+02 6.519756652986487e+02 6.635817185812491e+02 6.750790262099471e+02 6.635817185812491e+02 6.750790262099471e+02 6.864675881847434e+02
 6.977474045056385e+02 6.864675881847434e+02 6.977474045056385e+02 7.089184751726332e+02 7.199808001857280e+02 7.089184751726332e+02 7.199808001857280e+02 7.309343795449234e+02 7.417792132502203e+02 7.309343795449234e+02
 7.417792132502203e+02 7.525153013016193e+02 7.631426436991209e+02 7.525153013016193e+02 7.631426436991209e+02 -4.083311392321415e-01 -4.044268194451109e-01 -4.053453002878870e-01 -4.083311392321415e-01 -4.053453002878870e-01
 -3.954688345529760e-01 -3.787007270801602e-01 -3.954688345529760e-01 -3.787007270801602e-01 -3.550377774461077e-01 -3.550377774461077e-01 -3.244691817579251e-01 -3.244691817579251e-01 -3.065841550186512e-01 -2.865455534125925e-01
 -3.065841550186512e-01 -2.865455534125925e-01 -1.702986598239878e-01 3.991645959752521e+00 -1.702986598239878e-01 3.991645959752521e+00 1.035449126929191e+01 1.777696496682247e+01 1.035449126929191e+01 1.777696496682247e+01
 2.567653897521017e+01 2.567653897521017e+01 2.969960088048169e+01 3.375214978700473e+01 2.969960088048169e+01 3.375214978700473e+01 3.782126663680855e+01 3.985884832395492e+01 4.189767932026057e+01 4.393714416815509e+01
 4.597675012359269e+01 4.801610398666753e+01 5.005489302264380e+01 5.413003285357447e+01 5.820052100466970e+01 6.632495189099528e+01 3.782126663680855e+01 3.985884832395492e+01 4.189767932026057e+01 4.393714416815509e+01
 4.597675012359269e+01 4.801610398666753e+01 5.005489302264380e+01 5.413003285357447e+01 5.820052100466970e+01 6.632495189099528e+01 8.249754132893135e+01 9.856210235119102e+01 8.249754132893135e+01 9.856210235119102e+01
 1.145179774754438e+02 1.303651110223094e+02 1.145179774754438e+02 1.303651110223094e+02 1.461034991429556e+02 1.617331416200807e+02 1.461034991429556e+02 1.617331416200807e+02 1.772540384436602e+02 1.926661896133175e+02
 1.772540384436602e+02 1.926661896133175e+02 2.079695951290423e+02 2.231642549908356e+02 2.079695951290423e+02 2.231642549908356e+02 2.382501691986988e+02 2.532273377526328e+02 2.382501691986988e+02 2.532273377526328e+02
 2.680957606526393e+02 2.828554378987192e+02 2.680957606526393e+02 2.828554378987192e+02 2.975063694908737e+02 3.120485554291038e+02 2.975063694908737e+02 3.120485554291038e+02 3.264819957134108e+02 3.408066903437956e+02
 3.264819957134108e+02 3.408066903437956e+02 3.550226393202593e+02 3.691298426428028e+02 3.550226393202593e+02 3.691298426428028e+02 3.831283003114270e+02 3.970180123261331e+02 3.831283003114270e+02 3.970180123261331e+02
 4.107989786869216e+02 4.244711993937937e+02 4.107989786869216e+02 4.244711993937937e+02 4.380346744467501e+02 4.514894038457917e+02 4.380346744467501e+02 4.514894038457917e+02 4.648353875909194e+02 4.780726256821336e+02
 4.648353875909194e+02 4.780726256821336e+02 4.912011181194355e+02 5.042208649028257e+02 4.912011181194355e+02 5.042208649028257e+02 5.171318660323049e+02 5.299341215078738e+02 5.171318660323049e+02 5.299341215078738e+02
 5.426276313295332e+02 5.552123954972836e+02 5.426276313295332e+02 5.552123954972836e+02 5.676884140111259e+02 5.800556868710607e+02 5.676884140111259e+02 5.800556868710607e+02 5.923142140770886e+02 6.044639956292106e+02
 5.923142140770886e+02 6.044639956292106e+02 6.165050315274268e+02 6.284373217717381e+02 6.165050315274268e+02 6.284373217717381e+02 6.402608663621452e+02 6.519756652986487e+02 6.402608663621452e+02 6.519756652986487e+02
 6.635817185812491e+02 6.750790262099471e+02 6.635817185812491e+02 6.750790262099471e+02 6.864675881847434e+02 6.977474045056385e+02 6.864675881847434e+02 6.977474045056385e+02 7.089184751726332e+02 7.199808001857280e+02
 7.089184751726332e+02 7.199808001857280e+02 7.309343795449234e+02 7.417792132502203e+02 7.309343795449234e+02 7.417792132502203e+02 7.525153013016193e+02 7.631426436991209e+02 7.525153013016193e+02 7.631426436991209e+02
 7.736612404427256e+02 7.736612404427256e+02 7.840710915324344e+02 7.840710915324344e+02 7.736612404427256e+02 7.840710915324344e+02 7.943721969682479e+02 7.943721969682479e+02 8.045645567501666e+02 8.045645567501666e+02
 7.943721969682479e+02 8.045645567501666e+02 7.736612404427256e+02 7.840710915324344e+02 7.736612404427256e+02 7.840710915324344e+02 7.943721969682479e+02 8.045645567501666e+02 7.943721969682479e+02 8.045645567501666e+02
 8.146481708781912e+02 8.146481708781912e+02 8.246230393523225e+02 8.246230393523225e+02 8.146481708781912e+02 8.246230393523225e+02 8.344891621725611e+02 8.344891621725611e+02 8.442465393389078e+02 8.442465393389078e+02
 8.344891621725611e+02 8.442465393389078e+02 8.146481708781912e+02 8.246230393523225e+02 8.146481708781912e+02 8.246230393523225e+02 8.344891621725611e+02 8.442465393389078e+02 8.344891621725611e+02 8.442465393389078e+02
 8.538951708513632e+02 8.538951708513632e+02 8.634350567099284e+02 8.634350567099284e+02 8.538951708513632e+02 8.634350567099284e+02 8.728661969146035e+02 8.728661969146035e+02 8.821885914653899e+02 8.821885914653899e+02
 8.728661969146035e+02 8.821885914653899e+02 8.538951708513632e+02 8.634350567099284e+02 8.538951708513632e+02 8.634350567099284e+02 8.728661969146035e+02 8.821885914653899e+02 8.728661969146035e+02 8.821885914653899e+02
 8.914022403622879e+02 8.914022403622879e+02 9.005071436052986e+02 9.005071436052986e+02 8.914022403622879e+02 9.005071436052986e+02 9.095033011944225e+02 9.095033011944225e+02 9.183907131296609e+02 9.183907131296609e+02
 9.095033011944225e+02 9.183907131296609e+02 8.914022403622879e+02 9.005071436052986e+02 8.914022403622879e+02 9.005071436052986e+02 9.095033011944225e+02 9.183907131296609e+02 9.095033011944225e+02 9.183907131296609e+02
 9.271693794110141e+02 9.271693794110141e+02 9.358393000384834e+02 9.358393000384834e+02 9.271693794110141e+02 9.358393000384834e+02 9.444004750120696e+02 9.444004750120696e+02 9.528529043317735e+02 9.528529043317735e+02
 9.444004750120696e+02 9.528529043317735e+02 9.271693794110141e+02 9.358393000384834e+02 9.271693794110141e+02 9.358393000384834e+02 9.444004750120696e+02 9.528529043317735e+02 9.444004750120696e+02 9.528529043317735e+02
 9.611965879975960e+02 9.611965879975960e+02 9.694315260095383e+02 9.694315260095383e+02 9.611965879975960e+02 9.694315260095383e+02 9.775577183676008e+02 9.775577183676008e+02 9.855751650717851e+02 9.855751650717851e+02
 9.775577183676008e+02 9.855751650717851e+02 9.611965879975960e+02 9.694315260095383e+02 9.611965879975960e+02 9.694315260095383e+02 9.775577183676008e+02 9.855751650717851e+02 9.775577183676008e+02 9.855751650717851e+02
 9.934838661220921e+02 9.934838661220921e+02 1.001283821518523e+03 1.001283821518523e+03 9.934838661220921e+02 1.001283821518523e+03 1.008975031261078e+03 1.008975031261078e+03 1.016557495349760e+03 1.016557495349760e+03
 1.008975031261078e+03 1.016557495349760e+03 9.934838661220921e+02 1.001283821518523e+03 9.934838661220921e+02 1.001283821518523e+03 1.008975031261078e+03 1.016557495349760e+03 1.008975031261078e+03 1.016557495349760e+03
 1.024031213784568e+03 1.024031213784568e+03 1.031396186565505e+03 1.031396186565505e+03 1.024031213784568e+03 1.031396186565505e+03 1.038652413692571e+03 1.038652413692571e+03 1.045799895165768e+03 1.045799895165768e+03
 1.038652413692571e+03 1.045799895165768e+03 1.024031213784568e+03 1.031396186565505e+03 1.024031213784568e+03 1.031396186565505e+03 1.038652413692571e+03 1.045799895165768e+03 1.038652413692571e+03 1.045799895165768e+03
 7.736612404427256e+02 7.840710915324344e+02 7.736612404427256e+02 7.840710915324344e+02 7.943721969682479e+02 8.045645567501666e+02 7.943721969682479e+02 8.045645567501666e+02 8.146481708781912e+02 8.246230393523225e+02
 8.146481708781912e+02 8.246230393523225e+02 8.344891621725611e+02 8.442465393389078e+02 8.344891621725611e+02 8.442465393389078e+02 8.538951708513632e+02 8.634350567099284e+02 8.538951708513632e+02 8.634350567099284e+02
 8.728661969146035e+02 8.821885914653899e+02 8.728661969146035e+02 8.821885914653899e+02 8.914022403622879e+02 9.005071436052986e+02 8.914022403622879e+02 9.005071436052986e+02 9.095033011944225e+02 9.183907131296609e+02
 9.095033011944225e+02 9.183907131296609e+02 9.271693794110141e+02 9.358393000384834e+02 9.271693794110141e+02 9.358393000384834e+02 9.444004750120696e+02 9.528529043317735e+02 9.444004750120696e+02 9.528529043317735e+02
 9.611965879975960e+02 9.694315260095383e+02 9.611965879975960e+02 9.694315260095383e+02 9.775577183676008e+02 9.855751650717851e+02 9.775577183676008e+02 9.855751650717851e+02 9.934838661220921e+02 1.001283821518523e+03
 9.934838661220921e+02 1.001283821518523e+03 1.008975031261078e+03 1.016557495349760e+03 1.008975031261078e+03 1.016557495349760e+03 1.024031213784568e+03 1.031396186565505e+03 1.024031213784568e+03 1.031396186565505e+03
 1.038652413692571e+03 1.045799895165768e+03 1.038652413692571e+03 1.045799895165768e+03 7.736612404427256e+02 7.840710915324344e+02 7.736612404427256e+02 7.840710915324344e+02 7.943721969682479e+02 8.045645567501666e+02
 7.943721969682479e+02 8.045645567501666e+02 8.146481708781912e+02 8.246230393523225e+02 8.146481708781912e+02 8.246230393523225e+02 8.344891621725611e+02 8.442465393389078e+02 8.344891621725611e+02 8.442465393389078e+02
 8.538951708513632e+02 8.634350567099284e+02 8.538951708513632e+02 8.634350567099284e+02 8.728661969146035e+02 8.821885914653899e+02 8.728661969146035e+02 8.821885914653899e+02 8.914022403622879e+02 9.005071436052986e+02
 8.914022403622879e+02 9.005071436052986e+02 9.095033011944225e+02 9.183907131296609e+02 9.095033011944225e+02 9.183907131296609e+02 9.271693794110141e+02 9.358393000384834e+02 9.271693794110141e+02 9.358393000384834e+02
 9.444004750120696e+02 9.528529043317735e+02 9.444004750120696e+02 9.528529043317735e+02 9.611965879975960e+02 9.694315260095383e+02 9.611965879975960e+02 9.694315260095383e+02 9.775577183676008e+02 9.855751650717851e+02
 9.775577183676008e+02 9.855751650717851e+02 9.934838661220921e+02 1.001283821518523e+03 9.934838661220921e+02 1.001283821518523e+03 1.008975031261078e+03 1.016557495349760e+03 1.008975031261078e+03 1.016557495349760e+03
 1.024031213784568e+03 1.031396186565505e+03 1.024031213784568e+03 1.031396186565505e+03 1.038652413692571e+03 1.045799895165768e+03 1.038652413692571e+03 1.045799895165768e+03 1.052838630985097e+03 1.052838630985097e+03
 1.059768621150559e+03 1.059768621150559e+03 1.052838630985097e+03 1.059768621150559e+03 1.066589865662156e+03 1.066589865662156e+03 1.073302364519889e+03 1.073302364519889e+03 1.066589865662156e+03 1.073302364519889e+03
 1.052838630985097e+03 1.059768621150559e+03 1.052838630985097e+03 1.059768621150559e+03 1.066589865662156e+03 1.073302364519889e+03 1.066589865662156e+03 1.073302364519889e+03 1.079906117723760e+03 1.079906117723760e+03
 1.086401125273770e+03 1.086401125273770e+03 1.079906117723760e+03 1.086401125273770e+03 1.092787387169921e+03 1.092787387169921e+03 1.099064903412213e+03 1.099064903412213e+03 1.092787387169921e+03 1.099064903412213e+03
 1.079906117723760e+03 1.086401125273770e+03 1.079906117723760e+03 1.086401125273770e+03 1.092787387169921e+03 1.099064903412213e+03 1.092787387169921e+03 1.099064903412213e+03 1.105233674000651e+03 1.105233674000651e+03
 1.111293698935233e+03 1.111293698935233e+03 1.105233674000651e+03 1.111293698935233e+03 1.117244978215964e+03 1.117244978215964e+03 1.123087511842844e+03 1.123087511842844e+03 1.117244978215964e+03 1.123087511842844e+03
 1.105233674000651e+03 1.111293698935233e+03 1.105233674000651e+03 1.111293698935233e+03 1.117244978215964e+03 1.123087511842844e+03 1.117244978215964e+03 1.123087511842844e+03 1.128821299815875e+03 1.128821299815875e+03
 1.134446342135060e+03 1.134446342135060e+03 1.128821299815875e+03 1.134446342135060e+03 1.139962638800400e+03 1.139962638800400e+03 1.145370189811898e+03 1.145370189811898e+03 1.139962638800400e+03 1.145370189811898e+03
 1.128821299815875e+03 1.134446342135060e+03 1.128821299815875e+03 1.134446342135060e+03 1.139962638800400e+03 1.145370189811898e+03 1.139962638800400e+03 1.145370189811898e+03 1.052838630985097e+03 1.059768621150559e+03
 1.052838630985097e+03 1.059768621150559e+03 1.066589865662156e+03 1.073302364519889e+03 1.066589865662156e+03 1.073302364519889e+03 1.079906117723760e+03 1.086401125273770e+03 1.079906117723760e+03 1.086401125273770e+03
 1.092787387169921e+03 1.099064903412213e+03 1.092787387169921e+03 1.099064903412213e+03 1.105233674000651e+03 1.111293698935233e+03 1.105233674000651e+03 1.111293698935233e+03 1.117244978215964e+03 1.123087511842844e+03
 1.117244978215964e+03 1.123087511842844e+03 1.128821299815875e+03 1.134446342135060e+03 1.128821299815875e+03 1.134446342135060e+03 1.139962638800400e+03 1.145370189811898e+03 1.139962638800400e+03 1.145370189811898e+03
 1.052838630985097e+03 1.059768621150559e+03 1.052838630985097e+03 1.059768621150559e+03 1.066589865662156e+03 1.073302364519889e+03 1.066589865662156e+03 1.073302364519889e+03 1.079906117723760e+03 1.086401125273770e+03
 1.079906117723760e+03 1.086401125273770e+03 1.092787387169921e+03 1.099064903412213e+03 1.092787387169921e+03 1.099064903412213e+03 1.105233674000651e+03 1.111293698935233e+03 1.105233674000651e+03 1.111293698935233e+03
 1.117244978215964e+03 1.123087511842844e+03 1.117244978215964e+03 1.123087511842844e+03 1.128821299815875e+03 1.134446342135060e+03 1.128821299815875e+03 1.134446342135060e+03 1.139962638800400e+03 1.145370189811898e+03
 1.139962638800400e+03 1.145370189811898e+03 1.150668995169556e+03 1.150668995169556e+03 1.155859054873377e+03 1.155859054873377e+03 1.150668995169556e+03 1.155859054873377e+03 1.160940368923362e+03 1.160940368923362e+03
 1.165912937319515e+03 1.165912937319515e+03 1.160940368923362e+03 1.165912937319515e+03 1.150668995169556e+03 1.155859054873377e+03 1.150668995169556e+03 1.155859054873377e+03 1.160940368923362e+03 1.165912937319515e+03
 1.160940368923362e+03 1.165912937319515e+03 1.170776760061838e+03 1.170776760061838e+03 1.175531837150334e+03 1.175531837150334e+03 1.170776760061838e+03 1.175531837150334e+03 1.180178168585005e+03 1.180178168585005e+03
 1.184715754365845e+03 1.184715754365845e+03 1.180178168585005e+03 1.184715754365845e+03 1.170776760061838e+03 1.175531837150334e+03 1.170776760061838e+03 1.175531837150334e+03 1.180178168585005e+03 1.184715754365845e+03
 1.180178168585005e+03 1.184715754365845e+03 1.150668995169556e+03 1.155859054873377e+03 1.150668995169556e+03 1.155859054873377e+03 1.160940368923362e+03 1.165912937319515e+03 1.160940368923362e+03 1.165912937319515e+03
 1.170776760061838e+03 1.175531837150334e+03 1.170776760061838e+03 1.175531837150334e+03 1.180178168585005e+03 1.184715754365845e+03 1.180178168585005e+03 1.184715754365845e+03 1.150668995169556e+03 1.155859054873377e+03
 1.150668995169556e+03 1.155859054873377e+03 1.160940368923362e+03 1.165912937319515e+03 1.160940368923362e+03 1.165912937319515e+03 1.170776760061838e+03 1.175531837150334e+03 1.170776760061838e+03 1.175531837150334e+03
 1.180178168585005e+03 1.184715754365845e+03 1.180178168585005e+03 1.184715754365845e+03 1.189144594473413e+03 1.189144594473413e+03 1.189144594473413e+03 1.193464675263829e+03 1.193464675263829e+03 1.193464675263829e+03
 1.195582434227576e+03 1.195582434227576e+03 1.195582434227576e+03 1.196626487103473e+03 1.196626487103473e+03 1.197653751208739e+03 1.197653751208739e+03 1.196626487103473e+03 1.197653751208739e+03 1.198643602691233e+03
 1.198643602691233e+03 1.199537836431458e+03 1.199537836431458e+03 1.198643602691233e+03 1.199537836431458e+03 1.200181288901915e+03 1.200181288901915e+03 1.200277000088551e+03 1.200277000088551e+03 1.200181288901915e+03
 1.200277000088551e+03 1.189144594473413e+03 1.189144594473413e+03 1.193464675263829e+03 1.193464675263829e+03 1.195582434227576e+03 1.195582434227576e+03 1.196626487103473e+03 1.197653751208739e+03 1.196626487103473e+03