DF-ISE text

Info {
  version = 1.0
  type    = dataset
  dimension   = 2
  nb_vertices = 2543
  nb_edges    = 7430
  nb_faces    = 0
  nb_elements = 4920
  nb_regions  = 4
  datasets    = [ "ElectrostaticPotential" "eDensity" "hDensity" "LatticeTemperature" "EffectiveIntrinsicDensity" "IntrinsicDensity" "eEquilibriumDensity" "hEquilibriumDensity" "BandGap" "EffectiveBandGap" "BandgapNarrowing" "ValenceBandEnergy" "ConductionBandEnergy" "hEffectiveStateDensity" "eEffectiveStateDensity" "eQuasiFermiEnergy" "hQuasiFermiEnergy" "ElectronAffinity" "TotalCurrentDensity" "eCurrentDensity" "hCurrentDensity" "eMobility" "hMobility" "eVelocity" "hVelocity" "ElectricField" "eQuasiFermiPotential" "hQuasiFermiPotential" "SpaceCharge" "eGradQuasiFermi" "hGradQuasiFermi" "eEparallel" "hEparallel" "eEnormal" "hEnormal" "srhRecombination" "Band2BandGeneration" "AugerRecombination" "RadiativeRecombination" "ImpactIonization" "eImpactIonization" "hImpactIonization" "eAlphaAvalanche" "hAlphaAvalanche" "TotalRecombination" "eLifetime" "hLifetime" "SurfaceRecombination" "DopingConcentration" "DonorConcentration" "AcceptorConcentration" "DonorPlusConcentration" "AccepMinusConcentration" "QuasiFermiPotential" ]
  functions   = [ ElectrostaticPotential eDensity hDensity LatticeTemperature EffectiveIntrinsicDensity IntrinsicDensity eEquilibriumDensity hEquilibriumDensity BandGap EffectiveBandGap BandgapNarrowing ValenceBandEnergy ConductionBandEnergy hEffectiveStateDensity eEffectiveStateDensity eQuasiFermiEnergy hQuasiFermiEnergy ElectronAffinity TotalCurrentDensity eCurrentDensity hCurrentDensity eMobility hMobility eVelocity hVelocity ElectricField eQuasiFermiPotential hQuasiFermiPotential SpaceCharge eGradQuasiFermi hGradQuasiFermi eEparallel hEparallel eEnormal hEnormal srhRecombination Band2BandGeneration AugerRecombination RadiativeRecombination ImpactIonization eImpactIonization hImpactIonization eAlphaAvalanche hAlphaAvalanche TotalRecombination eLifetime hLifetime SurfaceRecombination DopingConcentration DonorConcentration AcceptorConcentration DonorPlusConcentration AccepMinusConcentration QuasiFermiPotential ]
}

Data {

  Dataset ("ElectrostaticPotential") {
    function  = ElectrostaticPotential
    type      = scalar
    dimension = 1
    location  = vertex
    validity  = [ "N-" ]
    Values (2543) {
 2.862563074920087e-01 2.839613776557109e-01 2.862583733371831e-01 2.932408602428976e-01 2.932455217103240e-01 2.862482322754364e-01 2.839613776557109e-01 2.932237876104563e-01 3.047837756497019e-01 3.047930165836731e-01
 3.204383184958652e-01 3.204583777816334e-01 3.047520675900925e-01 3.203729771362541e-01 2.862237692034650e-01 2.839613776557109e-01 2.931804848930431e-01 2.860954027925841e-01 2.837678967927341e-01 2.930672054395064e-01
 3.046832897004423e-01 3.202460394015342e-01 3.045499830417284e-01 3.200350714083345e-01 3.386201769046391e-01 3.386674653282691e-01 3.552234459027941e-01 3.553183884138359e-01 3.384716731165925e-01 3.549324638255482e-01
 3.659283447719598e-01 3.660621951339875e-01 3.655237984618721e-01 3.690227523100881e-01 3.691661434120687e-01 3.710399500052513e-01 3.711873324503789e-01 3.685911908666314e-01 3.705977584155648e-01 3.382032640656857e-01
 3.544302176661479e-01 3.377942088624137e-01 3.537051100294922e-01 3.648431369112421e-01 3.638892804430270e-01 3.678705466381490e-01 3.698634403997828e-01 3.668694354063201e-01 3.688498105409073e-01 2.859714626289925e-01
 2.836392312945836e-01 2.840967352268807e-01 2.835147256879080e-01 2.858406561250884e-01 2.929361292790055e-01 2.887398758468085e-01 2.927804335062342e-01 3.043789758995391e-01 2.979367004938923e-01 3.041604977279323e-01
 3.197524207606657e-01 3.113635644184043e-01 3.193824183379615e-01 2.840181341629708e-01 2.834377581506393e-01 2.836788992909539e-01 2.835388003536780e-01 2.840995842660491e-01 2.857572414237831e-01 2.857887442580703e-01
 2.886482062663595e-01 2.926766548586121e-01 2.886186572616223e-01 2.925907658648079e-01 2.846087142826508e-01 2.844925032513347e-01 2.896403733017220e-01 2.896449404616798e-01 2.896283401225722e-01 2.849611369236565e-01
 2.896136586550147e-01 2.896039740328989e-01 2.855602041776876e-01 2.864201505463188e-01 2.896405648678393e-01 2.898310811000359e-01 2.980106603967387e-01 2.980806631893816e-01 3.216556031990020e-01 3.219925064144769e-01
 2.978060854382324e-01 3.212411293824302e-01 3.206746146301184e-01 2.974825512394249e-01 3.199666806164376e-01 3.191335918031595e-01 2.970641736779171e-01 3.171571072516023e-01 2.960675927143153e-01 3.124814856254841e-01
 2.950839869565553e-01 3.100609194091704e-01 3.077392768044401e-01 3.514004117687909e-01 3.520813753965548e-01 3.505560374194315e-01 3.493873771502609e-01 3.479096126052778e-01 3.461442669128948e-01 3.418721983763335e-01
 3.875912500335300e-01 3.881813101590664e-01 3.868494459342338e-01 3.857990678741539e-01 3.844342981650524e-01 3.827391899884298e-01 3.783069190860368e-01 3.315538754694400e-01 3.649061914180013e-01 3.262590229680152e-01
 3.560703070474189e-01 3.237154853430700e-01 3.212804231474608e-01 3.513264207905822e-01 3.465219678811707e-01 4.127123962484588e-01 4.131452041537502e-01 4.114019885846075e-01 4.091761419798857e-01 4.059650496420635e-01
 4.309389953262940e-01 4.312944921615281e-01 4.298652338305574e-01 4.280539014461648e-01 4.254679484078771e-01 3.961016592938606e-01 4.177201406282389e-01 3.890628629996209e-01 4.123489291121858e-01 3.849033071830960e-01
 3.802695605404743e-01 4.057520096137550e-01 2.889834036654657e-01 2.902704815521517e-01 2.910371052073447e-01 2.927363405503661e-01 2.921848621961552e-01 2.937382588141760e-01 2.943605523583980e-01 3.055958170236844e-01
 3.036883706128409e-01 2.940800190954561e-01 3.020519331134532e-01 3.007062932064401e-01 3.189671718850258e-01 3.167916041517790e-01 3.417886520531871e-01 3.372429617241543e-01 3.128758470680638e-01 3.329694055457512e-01
 3.290236278799381e-01 3.751440437038856e-01 3.695335173813747e-01 3.976671787507282e-01 3.635045433236492e-01 3.571989910118202e-01 3.929548362467692e-01 3.877262942609165e-01 3.095500908930377e-01 3.254213885250394e-01
 3.221676670391830e-01 3.192427168130772e-01 3.166340247129254e-01 3.508354533424066e-01 3.446645494835566e-01 3.819366288591476e-01 3.755611188540129e-01 3.389007058175142e-01 3.336754915577447e-01 3.686410817275924e-01
 3.613238164673550e-01 2.996562690909657e-01 2.989003825131075e-01 2.984291091117977e-01 2.982291254473892e-01 3.122647320464022e-01 3.088750801861059e-01 3.290344990413384e-01 3.249687267421474e-01 3.538925640139240e-01
 3.467117254464435e-01 3.214307685977240e-01 3.183685892249152e-01 3.401028431966973e-01 3.342476964993874e-01 3.063095200012742e-01 3.134578295261830e-01 3.291850499353674e-01 3.248692368228812e-01 3.044404749911215e-01
 3.212102248712793e-01 3.181251757923422e-01 2.978153521809134e-01 2.976831070764697e-01 3.040136732659989e-01 3.038389178810921e-01 3.111786979215276e-01 3.109560916627367e-01 3.191410896920431e-01 3.148237689432776e-01
 3.188560743928736e-01 2.957000357188303e-01 2.980519271827270e-01 3.007660439895839e-01 3.038093957287777e-01 2.985781279543164e-01 3.031617000355841e-01 3.023879845815928e-01 3.133510596119566e-01 3.100245551052662e-01
 2.998051461931359e-01 3.020811717116708e-01 3.077907884460367e-01 3.064003770264608e-01 3.017644855704910e-01 3.056767384060894e-01 3.054877135019354e-01 3.043205658743589e-01 3.063333118086279e-01 3.071459686872970e-01
 3.107379714413160e-01 3.073538651396907e-01 3.083618711904195e-01 3.107632430867061e-01 3.111959657655402e-01 3.145463210466086e-01 3.144625590234226e-01 3.128302741515943e-01 3.145750378687306e-01 3.185281349661672e-01
 3.183779763903532e-01 3.183156874267168e-01 3.372496364363303e-01 3.279306443764661e-01 3.365493849293966e-01 3.527673819079036e-01 3.516188379536478e-01 3.626839451479871e-01 3.612522139179139e-01 3.656137458028438e-01
 3.675857516218052e-01 3.641373234916472e-01 3.661113689957619e-01 3.276073479181437e-01 3.272367156058954e-01 3.361158035497533e-01 3.356374320828984e-01 3.268099303125340e-01 3.351005575119360e-01 3.263691475393861e-01
 3.345348048764495e-01 3.502374825181920e-01 3.487182705623061e-01 3.596265237384053e-01 3.579312920281322e-01 3.624899979674969e-01 3.644873024866155e-01 3.607985008850125e-01 3.628373090770268e-01 3.723123769687171e-01
 3.724598900509136e-01 3.731027922833739e-01 3.732479792120139e-01 3.718708576753562e-01 3.726690725807660e-01 3.735993964494485e-01 3.737407976991168e-01 3.739281876194203e-01 3.740649976744862e-01 3.731776592587551e-01
 3.735206970973423e-01 3.741689815180079e-01 3.743008024205133e-01 3.737768147075020e-01 3.742722486319190e-01 3.744015092575219e-01 3.743697217955000e-01 3.744964052296246e-01 3.738879073743542e-01 3.739932379193909e-01
 3.744642899790655e-01 3.745883945909889e-01 3.740956523384176e-01 3.745111662453902e-01 3.746339848109149e-01 3.745580633762061e-01 3.746795996089086e-01 3.741464366332232e-01 3.741972276704641e-01 3.746051573295133e-01
 3.747254159777251e-01 3.746525966014449e-01 3.747715833206847e-01 3.742481986445314e-01 3.742994956748507e-01 3.747490032501778e-01 3.748654658114131e-01 3.744035529146535e-01 3.711407542659161e-01 3.719542859029873e-01
 3.701378734351599e-01 3.709763385689713e-01 3.724845592038799e-01 3.728525989269418e-01 3.715394562434278e-01 3.719442349242256e-01 3.731351634855739e-01 3.722649984844936e-01 3.732596499670150e-01 3.733783677271276e-01
 3.724086579052940e-01 3.725464435493167e-01 3.734940978245965e-01 3.726810561100564e-01 3.735514970753274e-01 3.736088683764089e-01 3.727478079474363e-01 3.728144652747952e-01 3.736663809136340e-01 3.737241774006472e-01
 3.728811926394367e-01 3.729481289080764e-01 3.738410968743945e-01 3.730830908931879e-01 3.749503448130794e-01 3.750618539424149e-01 3.751656025788624e-01 3.752723133928251e-01 3.746198965526468e-01 3.748496993741531e-01
 3.756436702212128e-01 3.757413231299027e-01 3.753553813257283e-01 3.761848034442474e-01 3.762743121843540e-01 3.767866630898398e-01 3.768693531622859e-01 3.759221221151646e-01 3.765477856682847e-01 3.740825634253196e-01
 3.733596365902064e-01 3.743366138476222e-01 3.736473710626947e-01 3.748880320813135e-01 3.742619150998193e-01 3.754967740531341e-01 3.761606673461091e-01 3.749284727245577e-01 3.756455524774719e-01 3.688931429702753e-01
 3.697674860916946e-01 3.674507699052163e-01 3.683743523149680e-01 3.703753929641732e-01 3.708290191028727e-01 3.690401542286000e-01 3.695549837739553e-01 3.711997771053252e-01 3.699871240785462e-01 3.713683087280423e-01
 3.715307030918344e-01 3.701858475333059e-01 3.703779152908673e-01 3.716895702295064e-01 3.705658527066776e-01 3.717682960216467e-01 3.718468167841983e-01 3.706588708205935e-01 3.707515145070890e-01 3.719252922550096e-01
 3.720038574360962e-01 3.708439400198424e-01 3.709362798848257e-01 3.721617072801879e-01 3.711211440094455e-01 3.658772590365075e-01 3.668658629027675e-01 3.642903714297112e-01 3.653523222311219e-01 3.676028030598606e-01
 3.681898744721519e-01 3.661657041637712e-01 3.668282016663827e-01 3.686925787646234e-01 3.674031859229140e-01 3.689255166350743e-01 3.691509324074030e-01 3.676708214782892e-01 3.679298617229099e-01 3.693713004733938e-01
 3.681827675151086e-01 3.694801854944190e-01 3.695884594532722e-01 3.683075216658447e-01 3.684313971139630e-01 3.696962785636771e-01 3.698037761580152e-01 3.685545532135391e-01 3.686771270247421e-01 3.700182474500842e-01
 3.689209750514216e-01 3.724824956878671e-01 3.728124101238978e-01 3.714938004171674e-01 3.718727883312349e-01 3.735051391940856e-01 3.726555390168963e-01 3.742422020710405e-01 3.750225814669426e-01 3.734730874110635e-01
 3.743256508998561e-01 3.704473309778103e-01 3.694058091865718e-01 3.708792840998577e-01 3.698898876632594e-01 3.717581772637069e-01 3.708629753901470e-01 3.726608747637228e-01 3.735891909457911e-01 3.718489659622922e-01
 3.728515255479044e-01 4.573080409747572e-01 4.584716636626592e-01 4.537754519950482e-01 4.477348215067240e-01 4.388924231934685e-01 4.242032909455735e-01 4.786421317038885e-01 4.797005056492392e-01 4.754446881150071e-01
 4.700435534919978e-01 4.623020616046996e-01 5.090943374845924e-01 5.130276656254070e-01 4.935236952010157e-01 4.884215999814581e-01 4.811794423280347e-01 5.041494503265397e-01 4.971657162256224e-01 5.343274254199696e-01
 5.381592260465435e-01 5.227727008587140e-01 5.526887840001771e-01 5.564798880609367e-01 5.412769882288928e-01 4.177088615497238e-01 4.099380683778571e-01 4.332528367707270e-01 4.266497264083426e-01 4.005694206488672e-01
 4.189022263453667e-01 3.891535442976961e-01 4.097353979114509e-01 4.519622085887307e-01 4.385209069877165e-01 3.825235632151459e-01 3.752430501280228e-01 3.987374203355017e-01 3.673946867061041e-01 3.592262381081673e-01
 3.923809182700800e-01 3.853572915485778e-01 4.303451370948304e-01 4.163155116033018e-01 4.054190002678139e-01 4.209208825064157e-01 3.511575410729893e-01 3.436462382934943e-01 3.776345642983873e-01 3.692826311077439e-01
 3.370022746510072e-01 3.313233042037917e-01 3.605692964525909e-01 3.519784166829834e-01 3.922947451327523e-01 4.098978193183255e-01 3.847025523325387e-01 3.763830597599927e-01 3.967442073376788e-01 4.716611203839345e-01
 4.596138364392618e-01 4.445473052393805e-01 4.355935316594721e-01 4.254187049340731e-01 4.125704734438084e-01 4.880627638960773e-01 4.766934940442126e-01 4.627861475933890e-01 4.457990002067921e-01 5.032487390477705e-01
 5.221040769403622e-01 4.749693974159314e-01 4.947329330756141e-01 5.702084129855575e-01 5.739627708753218e-01 5.706823268874912e-01 5.744324448774167e-01 5.588853056400084e-01 5.593574576771320e-01 5.399072708217831e-01
 5.130280840035806e-01 5.072150742647825e-01 5.403782090744155e-01 5.134981277792307e-01 5.135198181767696e-01 3.265581020350096e-01 3.225947023452490e-01 3.440494244083284e-01 3.371347588401127e-01 3.166004377690768e-01
 3.313216513177689e-01 3.265261870412984e-01 3.674660563353725e-01 3.583282072172523e-01 3.891605698879325e-01 3.808252468090654e-01 3.495628700419008e-01 3.417226492236113e-01 3.717982145808438e-01 3.623724346685563e-01
 3.194056099657315e-01 3.350744623967913e-01 3.296091195427384e-01 3.531240039014426e-01 3.447067348269101e-01 3.147036456999772e-01 3.251776648766980e-01 3.216057458019516e-01 3.375222487388140e-01 3.316299972059556e-01
 3.991604612235308e-01 4.136703696671277e-01 3.914564974516128e-01 3.829934095980534e-01 3.998095147988506e-01 3.738089710918136e-01 3.641711644887874e-01 3.831613244087709e-01 3.546573458844193e-01 3.459695540373229e-01
 3.737400926925833e-01 3.639081827449988e-01 4.245527590927856e-01 4.115709859436492e-01 3.988283482040883e-01 3.905413660851221e-01 3.814877189561822e-01 3.962736678475883e-01 3.116737177146195e-01 3.268870646110253e-01
 3.231039483319987e-01 3.098401253553272e-01 3.177172394043642e-01 3.086178973507946e-01 3.144014397482079e-01 3.125007154383177e-01 3.385660674870450e-01 3.325287109697880e-01 3.542899382628632e-01 3.456080570700764e-01
 3.277097276911983e-01 3.238972634465466e-01 3.382957404970323e-01 3.323942592707032e-01 3.717724654023211e-01 3.617951241244025e-01 3.875419108501222e-01 3.780645197561874e-01 3.522631651443608e-01 3.438725635059836e-01
 3.680613248485065e-01 3.580885087387152e-01 3.277252080326989e-01 3.240672844596154e-01 3.369452585042794e-01 3.314291237712584e-01 3.489187660651478e-01 3.411231383560801e-01 3.190064318224073e-01 3.237580587291066e-01
 3.348387165041851e-01 3.299071102068937e-01 4.568376414435855e-01 4.426247737240876e-01 4.313762928992361e-01 4.186213406086640e-01 4.349899974578523e-01 4.775978198985849e-01 4.576415925967375e-01 4.476622112196911e-01
 4.038388829970689e-01 3.921334860910067e-01 3.828737132173752e-01 3.729653742017043e-01 3.863617147926729e-01 4.220875229001058e-01 4.072798773210028e-01 3.977111836969596e-01 3.628163469556303e-01 3.531564950578261e-01
 3.765534662525866e-01 3.663536984058214e-01 3.447050371675806e-01 3.377863137742548e-01 3.564168646787433e-01 3.475229348677884e-01 3.789253762665544e-01 3.899205157922591e-01 3.687126831345303e-01 3.586325131489573e-01
 3.801766927991932e-01 3.699476281082911e-01 4.224615502599520e-01 4.072414922894093e-01 3.894934073338295e-01 3.803824349217608e-01 4.338734166781253e-01 4.199161502714228e-01 4.039429164615394e-01 4.904650540321981e-01
 4.964122172662431e-01 4.712074742819564e-01 4.773943181694418e-01 4.488159296645619e-01 4.218495340636725e-01 4.144163190441916e-01 4.554639802645898e-01 4.294664211721622e-01 4.267755655931153e-01 4.969098674697956e-01
 4.968845491500241e-01 4.779043462165860e-01 4.778736254185550e-01 4.560004067162114e-01 4.559616716772139e-01 4.300619929874883e-01 4.300110320637764e-01 3.114489358662814e-01 3.160520969995468e-01 3.145081590942453e-01
 3.231478044226534e-01 3.192230358171655e-01 3.126580803325508e-01 3.171186662670656e-01 3.162336148912024e-01 3.323339362892451e-01 3.281117338494905e-01 3.401380301786415e-01 3.342871980832730e-01 3.494794381812287e-01
 3.418044458072209e-01 3.598048311180385e-01 3.505433226450536e-01 3.262987687297129e-01 3.357034711184115e-01 3.309835696169038e-01 3.427489414532019e-01 3.365476758686016e-01 3.701218574999204e-01 3.599739430913337e-01
 3.795975138615188e-01 3.692953425204037e-01 3.507348599444032e-01 3.429825535793649e-01 3.592029147815339e-01 3.501144204815314e-01 3.853839519610607e-01 3.778604703205260e-01 3.675289339029597e-01 3.575752926792556e-01
 3.752019360288535e-01 3.648922278641982e-01 3.217115637488936e-01 3.281211840657701e-01 3.368349437412756e-01 3.321020871502939e-01 3.425588933776398e-01 3.366046580697085e-01 3.487753092022253e-01 3.415646315753469e-01
 3.552003083700762e-01 3.468412524781589e-01 3.192584912072485e-01 3.233509153487980e-01 3.286066285736670e-01 3.359354854301383e-01 3.316482795356236e-01 3.401134946967421e-01 3.349163191885369e-01 3.973198060460443e-01
 3.918444488963653e-01 3.819703979793244e-01 3.877818546917210e-01 3.716639905201745e-01 3.776603691064615e-01 4.057121042242091e-01 3.871000397718885e-01 3.828038874038570e-01 3.614853232338804e-01 3.522218848247879e-01
 3.673188076660540e-01 3.574534373757369e-01 3.444622228770630e-01 3.383332571082311e-01 3.488184589752005e-01 3.418028965382395e-01 3.724959476175220e-01 3.769190159536708e-01 3.623014314081405e-01 3.665912173319775e-01
 3.530005712225235e-01 3.451950776751435e-01 3.568346682048060e-01 3.483780569318681e-01 4.112081232723767e-01 4.141860764371114e-01 3.933316217091163e-01 3.967028903202178e-01 3.731348870141316e-01 3.702182501984878e-01
 3.601803315939782e-01 3.512243331089588e-01 3.629379630427005e-01 3.536244926742699e-01 3.767960725187201e-01 3.664809038375776e-01 3.567838801696294e-01 4.148376044992135e-01 3.974347799229074e-01 4.147784886558632e-01
 3.973661565678425e-01 3.775962972660398e-01 3.775197494140553e-01 3.672640242168463e-01 3.574887352706654e-01 3.671868015188314e-01 3.574139612068929e-01 3.137961929214620e-01 3.161955736118774e-01 3.181975238200810e-01
 3.208496842910718e-01 3.241696089710329e-01 3.280588941920276e-01 3.363645920410959e-01 3.322535517663459e-01 3.390317052875326e-01 3.343285259298285e-01 3.415587289012165e-01 3.362998944135462e-01 3.438470491103303e-01
 3.380890366407868e-01 3.458024913289309e-01 3.396279756082033e-01 3.484181013963487e-01 3.416969545626356e-01 3.490001685079587e-01 3.489296770787915e-01 3.421485287277212e-01 3.420821849283796e-01 3.151820822248628e-01
 3.167615574776202e-01 3.180795157256169e-01 3.198059464718044e-01 3.219307693717662e-01 3.243709631692481e-01 3.269541613327367e-01 3.294106537362744e-01 3.314152999632958e-01 3.326549928075200e-01 3.329009833381704e-01
 3.328392672455687e-01 3.184790770524226e-01 3.190840564622390e-01 3.203281984609902e-01 3.221636159145586e-01 3.241114886504761e-01 3.252991812944854e-01 3.253415222192497e-01 3.252772430676049e-01 5.706746756493291e-01
 5.744324448774167e-01 5.706709829761217e-01 5.744324448774167e-01 5.593433767707268e-01 5.593360789244618e-01 5.706683058510638e-01 5.744324448774167e-01 5.593305846335005e-01 5.403583512411660e-01 5.403472676701215e-01
 5.403385264344477e-01 5.134703948322348e-01 5.134545602678566e-01 5.134415158987016e-01 4.968516819320057e-01 4.968327889055449e-01 4.778341254036718e-01 4.778113637581447e-01 4.968168565335693e-01 4.777916539213395e-01
 4.559132257412351e-01 4.558853197170043e-01 4.558603768530581e-01 4.299499129767737e-01 4.299146676761295e-01 4.298818443541874e-01 4.147091362015884e-01 4.146689650838566e-01 3.972872796390233e-01 3.972411249708599e-01
 4.146305416240915e-01 3.971954043150122e-01 3.774328506872517e-01 3.773808714341313e-01 3.773267010549680e-01 3.670990636237596e-01 3.670456211477687e-01 3.573284310842718e-01 3.572751360354459e-01 3.669880241412304e-01
 3.572155221143830e-01 3.488481321697121e-01 3.487960640043195e-01 3.420044513601272e-01 3.419536845428506e-01 3.487356992801248e-01 3.418930454159913e-01 3.327653896098608e-01 3.327155053927273e-01 3.326536132733998e-01
 3.251984383728651e-01 3.251433900122078e-01 3.250734809934077e-01 3.260947544883307e-01 3.262651582208014e-01 3.339935750429545e-01 3.335633136639539e-01 3.265178284422071e-01 3.263418402289714e-01 3.332582994222738e-01
 3.329869911380541e-01 3.473143643215497e-01 3.463436707026183e-01 3.563941888263175e-01 3.552480209243916e-01 3.592682792472485e-01 3.613437194060829e-01 3.580940068001220e-01 3.601698308732031e-01 3.262280863292559e-01
 3.261441156569110e-01 3.260381442440463e-01 3.328120938387741e-01 3.326770101249135e-01 3.325093691521310e-01 3.457731960203371e-01 3.454428269354703e-01 3.544907779376331e-01 3.540056716153783e-01 3.572853124408215e-01
 3.593334998810966e-01 3.567489104239774e-01 3.587624513817254e-01 5.706673204974084e-01 5.744324448774167e-01 5.593285151357434e-01 5.706668826899579e-01 5.744324448774167e-01 5.593275787449702e-01 5.403351055259660e-01
 5.403335077507275e-01 5.134361203055025e-01 5.134334803136757e-01 4.968100325879204e-01 4.777828624984841e-01 4.968065986574406e-01 4.777782993654962e-01 4.558487202126185e-01 4.558424658319786e-01 4.298656522507844e-01
 4.298566510226441e-01 4.146109873161230e-01 3.971712558272342e-01 4.145999069712320e-01 3.971572680248354e-01 3.772966747334822e-01 3.772787949418271e-01 3.669551539105079e-01 3.571804614174425e-01 3.669352609768174e-01
 3.571588955811427e-01 3.486992259439024e-01 3.418556265236715e-01 3.486764737805505e-01 3.418320367884021e-01 3.326144639205226e-01 3.325894928109063e-01 3.250287005034349e-01 3.250000124337799e-01 5.706666781710035e-01
 5.744324448774167e-01 5.593271364041854e-01 5.706666166070619e-01 5.744324448774167e-01 5.593270026233027e-01 5.403327384542119e-01 5.403325039456812e-01 5.134321748453378e-01 5.134317725983937e-01 4.968048743857096e-01
 4.777759706897191e-01 4.968043398998863e-01 4.777752443538040e-01 4.558392207266637e-01 4.558382022157977e-01 4.298519007927086e-01 4.298504004650325e-01 4.145940067302343e-01 3.971497419127461e-01 4.145921369340340e-01
 3.971473474827939e-01 3.772690457883807e-01 3.772659279207958e-01 3.669243278261650e-01 3.571469484788086e-01 3.669208202383654e-01 3.571431033606448e-01 3.486637832609095e-01 3.418188126263509e-01 3.486596876989833e-01
 3.418145362681734e-01 3.325754191023659e-01 3.325708585226509e-01 3.249838241768535e-01 3.249785769135152e-01 3.259708060697428e-01 3.324030872799276e-01 3.259280193356782e-01 3.323359467338622e-01 3.452264453528869e-01
 3.450893972982826e-01 3.536852720401790e-01 3.534808869532438e-01 3.563908492087571e-01 3.583765318720765e-01 3.561611802848855e-01 3.581273945006701e-01 3.259040240074624e-01 3.258962695924296e-01 3.322984801643675e-01
 3.322864025999467e-01 3.450130788405941e-01 3.449885139470862e-01 3.533666969246149e-01 3.533298969368326e-01 3.560325038811219e-01 3.579873378983256e-01 3.559909859812713e-01 3.579420815299484e-01 3.628506397272339e-01
 3.639747518277576e-01 3.616960290237979e-01 3.628508128903716e-01 3.648529089889456e-01 3.655794808615508e-01 3.637658096867183e-01 3.645320147686539e-01 3.662160974594981e-01 3.652090127774605e-01 3.665134213604831e-01
 3.668012990094973e-01 3.655264298092454e-01 3.658342005282308e-01 3.670821783847369e-01 3.661347102936704e-01 3.672206016810290e-01 3.673579329487324e-01 3.662828376111014e-01 3.664297923892506e-01 3.674943339014434e-01
 3.676299444435491e-01 3.665757332149759e-01 3.667207975439387e-01 3.678992455612951e-01 3.670087382167504e-01 3.608498320993682e-01 3.620071408230322e-01 3.602575659479379e-01 3.614038197726025e-01 3.629328995200413e-01
 3.637151406256011e-01 3.623259448658883e-01 3.631098770236441e-01 3.644114394524776e-01 3.638116695640997e-01 3.647392736684067e-01 3.650578254207851e-01 3.641432952075062e-01 3.644662143995613e-01 3.653693861243844e-01
 3.647826329465867e-01 3.655231139409363e-01 3.656757097755722e-01 3.649389476019412e-01 3.650942268201368e-01 3.658273250727679e-01 3.659780908778569e-01 3.652486147291822e-01 3.654022356189784e-01 3.662774959806591e-01
 3.657075786571836e-01 3.684325792820271e-01 3.689622531302050e-01 3.675782425386352e-01 3.681426318616471e-01 3.700184287638584e-01 3.692638501277207e-01 3.710787099030730e-01 3.721482541684707e-01 3.703838954034380e-01
 3.715083306967557e-01 3.668700534630259e-01 3.663127890246630e-01 3.674574488339228e-01 3.669135906896703e-01 3.686240080863039e-01 3.681085363717108e-01 3.697878454300860e-01 3.709542209188693e-01 3.693015478844960e-01
 3.704968378386466e-01 3.598521330017262e-01 3.609855302008258e-01 3.595885481847176e-01 3.607115761492527e-01 3.618999412500934e-01 3.626800879022153e-01 3.616188425567491e-01 3.623943811029570e-01 3.633811053924467e-01
 3.630928041670555e-01 3.637132323971615e-01 3.640371679521740e-01 3.634242519899660e-01 3.637478750074191e-01 3.643550610927384e-01 3.640657891706950e-01 3.645122670383952e-01 3.646685342901865e-01 3.642231201649478e-01
 3.643795853163825e-01 3.648240018441915e-01 3.649787891900229e-01 3.645353205405164e-01 3.646904424196210e-01 3.652867118262819e-01 3.649992264316241e-01 3.594398054404539e-01 3.605563487117359e-01 3.593916611475639e-01
 3.605060126432105e-01 3.614588866339400e-01 3.622310958134916e-01 3.614069156131761e-01 3.621779352646979e-01 3.629273190929702e-01 3.628733306381717e-01 3.632580207741924e-01 3.635811100159974e-01 3.632037323504278e-01
 3.635265902566127e-01 3.638986859264719e-01 3.638439981892114e-01 3.640559157419602e-01 3.642123232208344e-01 3.640011660744702e-01 3.641575257547300e-01 3.643680427043773e-01 3.645231892860509e-01 3.643132110617950e-01
 3.644683366013540e-01 3.648321398194619e-01 3.647772830542931e-01 3.658979712007953e-01 3.665057884825699e-01 3.656129181441385e-01 3.662239699572165e-01 3.677171466265757e-01 3.674438525054641e-01 3.689286873033311e-01
 3.701440527506477e-01 3.686657909014688e-01 3.698926549661965e-01 3.654466025469025e-01 3.653918792168142e-01 3.660589338747157e-01 3.660045051871435e-01 3.672827214225093e-01 3.672292877394673e-01 3.685099149918746e-01
 3.697431244103626e-01 3.684577559350623e-01 3.696920955250332e-01 3.774460805368381e-01 3.775243683260476e-01 3.781593709028768e-01 3.782386969865218e-01 3.772298889643141e-01 3.779667946097354e-01 3.768768729579635e-01
 3.776422232528276e-01 3.764115848516805e-01 3.772261405065415e-01 3.758447753929229e-01 3.767072187418646e-01 3.752130360396583e-01 3.761354473852155e-01 3.745441624392744e-01 3.755267140092544e-01 3.738731856150687e-01
 3.749161099559556e-01 3.796093194817355e-01 3.798570079340535e-01 3.790097730660259e-01 3.780902569790161e-01 3.770718347015098e-01 3.831406026875828e-01 3.837534665138875e-01 3.817255033086768e-01 3.880266437630357e-01
 3.884772975992045e-01 3.938236754915280e-01 3.941638255107865e-01 3.869755034991436e-01 3.930240416454130e-01 3.732309217962599e-01 3.743303222750559e-01 3.726412317152831e-01 3.737859043829784e-01 3.721273166083087e-01
 3.733113391339913e-01 3.716974061850717e-01 3.729053227092500e-01 3.713663444418660e-01 3.725991637554699e-01 3.711265999954744e-01 3.723694331701026e-01 3.709846172607607e-01 3.722373568904668e-01 3.709336505795233e-01
 3.721830292026396e-01 3.761168911880775e-01 3.753421981884019e-01 3.748825343044556e-01 3.746992137314000e-01 3.804194165495006e-01 3.799144859783763e-01 3.859841136961771e-01 3.922582247422440e-01 3.855927432842198e-01
 3.919516492275157e-01 4.008036174443551e-01 4.010685770833920e-01 4.094607639752661e-01 4.096757833059932e-01 4.001770505873064e-01 4.089500813894831e-01 4.207649559395566e-01 4.209499821715756e-01 4.369611004633061e-01
 4.371368030632586e-01 4.203241410027563e-01 4.365415641734258e-01 3.995704717539983e-01 4.084519511178691e-01 3.993253437708482e-01 4.082493616477519e-01 4.198919220258122e-01 4.361287172005903e-01 4.197153807004780e-01
 4.359595888818510e-01 4.651591311894522e-01 4.653681074275882e-01 5.446252279567254e-01 5.451056280637230e-01 4.646592522527823e-01 5.434740908453465e-01 1.258493930052714e+00 1.265011630664377e+00 1.242935678485946e+00
 3.826612697025217e+00 3.829305917187302e+00 3.820166454129833e+00 4.641659540341135e-01 5.423351194374694e-01 4.639634087997532e-01 5.418665173540256e-01 1.227628972624402e+00 1.221357649560554e+00 3.813799684914562e+00
 3.811183631324520e+00 5.706666780277969e-01 5.744324448774167e-01 5.593271360895518e-01 5.706668823968201e-01 5.744324448774167e-01 5.593275780996384e-01 5.403327378926632e-01 5.403335065953264e-01 5.134321738593269e-01
 5.134334782770036e-01 4.968048730595038e-01 4.777759688673909e-01 4.968065959126323e-01 4.777782955866141e-01 4.558392181535857e-01 4.558424604866971e-01 4.298518970328450e-01 4.298566431986771e-01 4.145940021493722e-01
 3.971497363915906e-01 4.145998974302992e-01 3.971572565121009e-01 3.772690396629081e-01 3.772787821420366e-01 3.669243218943565e-01 3.571469431586014e-01 3.669352485577332e-01 3.571588844100716e-01 3.486637787372092e-01
 3.418188087880839e-01 3.486764642445973e-01 3.418320286614236e-01 3.325754159035842e-01 3.325894859926142e-01 3.249838200536554e-01 3.250000036670618e-01 5.706673200554008e-01 5.744324448774167e-01 5.593285141557071e-01