DF-ISE text

Info {
  version = 1.0
  type    = dataset
  dimension   = 2
  nb_vertices = 2543
  nb_edges    = 7430
  nb_faces    = 0
  nb_elements = 4920
  nb_regions  = 4
  datasets    = [ "ElectrostaticPotential" "eDensity" "hDensity" "LatticeTemperature" "EffectiveIntrinsicDensity" "IntrinsicDensity" "eEquilibriumDensity" "hEquilibriumDensity" "BandGap" "EffectiveBandGap" "BandgapNarrowing" "ValenceBandEnergy" "ConductionBandEnergy" "hEffectiveStateDensity" "eEffectiveStateDensity" "eQuasiFermiEnergy" "hQuasiFermiEnergy" "ElectronAffinity" "TotalCurrentDensity" "eCurrentDensity" "hCurrentDensity" "eMobility" "hMobility" "eVelocity" "hVelocity" "ElectricField" "eQuasiFermiPotential" "hQuasiFermiPotential" "SpaceCharge" "eGradQuasiFermi" "hGradQuasiFermi" "eEparallel" "hEparallel" "eEnormal" "hEnormal" "srhRecombination" "Band2BandGeneration" "AugerRecombination" "RadiativeRecombination" "ImpactIonization" "eImpactIonization" "hImpactIonization" "eAlphaAvalanche" "hAlphaAvalanche" "TotalRecombination" "eLifetime" "hLifetime" "SurfaceRecombination" "DopingConcentration" "DonorConcentration" "AcceptorConcentration" "DonorPlusConcentration" "AccepMinusConcentration" "QuasiFermiPotential" ]
  functions   = [ ElectrostaticPotential eDensity hDensity LatticeTemperature EffectiveIntrinsicDensity IntrinsicDensity eEquilibriumDensity hEquilibriumDensity BandGap EffectiveBandGap BandgapNarrowing ValenceBandEnergy ConductionBandEnergy hEffectiveStateDensity eEffectiveStateDensity eQuasiFermiEnergy hQuasiFermiEnergy ElectronAffinity TotalCurrentDensity eCurrentDensity hCurrentDensity eMobility hMobility eVelocity hVelocity ElectricField eQuasiFermiPotential hQuasiFermiPotential SpaceCharge eGradQuasiFermi hGradQuasiFermi eEparallel hEparallel eEnormal hEnormal srhRecombination Band2BandGeneration AugerRecombination RadiativeRecombination ImpactIonization eImpactIonization hImpactIonization eAlphaAvalanche hAlphaAvalanche TotalRecombination eLifetime hLifetime SurfaceRecombination DopingConcentration DonorConcentration AcceptorConcentration DonorPlusConcentration AccepMinusConcentration QuasiFermiPotential ]
}

Data {

  Dataset ("ElectrostaticPotential") {
    function  = ElectrostaticPotential
    type      = scalar
    dimension = 1
    location  = vertex
    validity  = [ "N-" ]
    Values (2543) {
 2.862439186642689e-01 2.839613776557109e-01 2.862466646804864e-01 2.932035226816739e-01 2.932098478855109e-01 2.862332523230351e-01 2.839613776557109e-01 2.931804484014541e-01 3.046765942465279e-01 3.046894362615740e-01
 3.201102076085833e-01 3.201382741853016e-01 3.046326189535757e-01 3.200189219925978e-01 2.862014706695704e-01 2.839613776557109e-01 2.931226128846265e-01 2.860387617797180e-01 2.837217529977017e-01 2.929744789236913e-01
 3.045380254236120e-01 3.198429217290305e-01 3.043584408488126e-01 3.195569760622945e-01 3.376344431554648e-01 3.376980260975542e-01 3.529472690329849e-01 3.530643556479724e-01 3.374353740782432e-01 3.525901198350320e-01
 3.623811562261086e-01 3.625345251848158e-01 3.619201538332256e-01 3.650384695971400e-01 3.651988424304723e-01 3.667439832803397e-01 3.669057991886561e-01 3.645585611968619e-01 3.662613480177483e-01 3.370792303421701e-01
 3.519814336407303e-01 3.365504451415154e-01 3.511259644406770e-01 3.611546790898841e-01 3.601084060559478e-01 3.637677856338383e-01 3.654704636780255e-01 3.626953266385823e-01 3.644036772274639e-01 2.858862574640854e-01
 2.835643746636703e-01 2.840057956633933e-01 2.834265878612852e-01 2.857408225508927e-01 2.928105669773016e-01 2.886230603809852e-01 2.926347875347166e-01 3.041404771154111e-01 2.977432867978725e-01 3.038881917597668e-01
 3.191958449156993e-01 3.109603202344776e-01 3.187639643301145e-01 2.839283859262876e-01 2.833508980798236e-01 2.835989944260108e-01 2.834596019715019e-01 2.840175569553159e-01 2.856582322983547e-01 2.856975248018045e-01
 2.885315463352162e-01 2.925299222446815e-01 2.885097172526962e-01 2.924513277225011e-01 2.845346583714701e-01 2.844191172359418e-01 2.895706050007795e-01 2.895753206220525e-01 2.895581390738070e-01 2.848850279798844e-01
 2.895427173195327e-01 2.895319878546834e-01 2.854805288144942e-01 2.863352950394450e-01 2.895654629390666e-01 2.897512772493599e-01 2.979381210072921e-01 2.980082240887962e-01 3.215522972811463e-01 3.218887086302071e-01
 2.977332385305377e-01 3.211384159914984e-01 3.205726971739321e-01 2.974091703804895e-01 3.198657206206616e-01 3.190337115295716e-01 2.969900153386790e-01 3.170595509781273e-01 2.959910462463510e-01 3.123880492705580e-01
 2.950035949372399e-01 3.099686636798874e-01 3.076475586634343e-01 3.512103649020712e-01 3.518895897784875e-01 3.503681852198108e-01 3.492026264275331e-01 3.477288603729674e-01 3.459683811858064e-01 3.417082393780389e-01
 3.873395264802186e-01 3.879300002270673e-01 3.865972177162093e-01 3.855462766663533e-01 3.841808392107006e-01 3.824851874293858e-01 3.780525797664835e-01 3.314171164529707e-01 3.646627855897293e-01 3.261338831323043e-01
 3.558451048595330e-01 3.235951655612148e-01 3.211642176037877e-01 3.511139743169129e-01 3.463237938384841e-01 4.124699934440360e-01 4.129035724842712e-01 4.111572796745652e-01 4.089274951913552e-01 4.057110363280250e-01
 4.307118301640219e-01 4.310681362618916e-01 4.296359093252351e-01 4.278207559210867e-01 4.252295444507782e-01 3.958326558622635e-01 4.174654850981668e-01 3.887859377375806e-01 4.120831495644762e-01 3.846232968962999e-01
 3.799879227939057e-01 4.054736687888054e-01 2.888815075489338e-01 2.901839839964543e-01 2.909416103246900e-01 2.926047913333288e-01 2.920770324395174e-01 2.936142759497697e-01 2.942744465455973e-01 3.055037332745256e-01
 3.035951519821771e-01 2.939859474858501e-01 3.019566327768161e-01 3.006080042881338e-01 3.188543543622362e-01 3.166815151249007e-01 3.416050928101610e-01 3.370732434001893e-01 3.127693799896707e-01 3.328119484088017e-01
 3.288764871101444e-01 3.748630436721432e-01 3.692568226333592e-01 3.973746244547195e-01 3.632368949102746e-01 3.569456212618786e-01 3.926554291182333e-01 3.874209352998992e-01 3.094450576679013e-01 3.252825288280380e-01
 3.220352272460115e-01 3.191150413277765e-01 3.165097505463415e-01 3.506006013158407e-01 3.444500837450005e-01 3.816272290434327e-01 3.752514370943237e-01 3.387057731641746e-01 3.334974058098462e-01 3.683369206693435e-01
 3.610329849942853e-01 2.995539529317064e-01 2.987930854993049e-01 2.983158237202046e-01 2.981086624565708e-01 3.121441588538504e-01 3.087548678891649e-01 3.288698928699129e-01 3.248143668688655e-01 3.536225222617077e-01
 3.464667285927234e-01 3.212838277298912e-01 3.182268200865035e-01 3.398825395550200e-01 3.340484385282963e-01 3.061871303810282e-01 3.133213371296587e-01 3.290020568660055e-01 3.246980431980842e-01 3.043137489413411e-01
 3.210470842614926e-01 3.179672667537561e-01 2.976188421340883e-01 2.974926067864535e-01 3.037351243990956e-01 3.035643426982477e-01 3.107648255213865e-01 3.105430978843033e-01 3.185065779649119e-01 3.143115994564851e-01
 3.182186491950639e-01 2.955544309606667e-01 2.978782853877167e-01 3.005560992042737e-01 3.035523407717895e-01 2.984390992664868e-01 3.030286954565499e-01 3.022469039878086e-01 3.131976520665952e-01 3.098698141563814e-01
 2.996406984841172e-01 3.019180482809441e-01 3.076305396697153e-01 3.062312924122024e-01 3.015658100654648e-01 3.054955409546399e-01 3.052915970918058e-01 3.040765078270009e-01 3.060977415255282e-01 3.068279925218551e-01
 3.103418206421095e-01 3.070502807803054e-01 3.080712867570425e-01 3.103824084283086e-01 3.108313743401449e-01 3.140505097247076e-01 3.139828241365516e-01 3.124204239331219e-01 3.141137490260291e-01 3.179066146894859e-01
 3.177732023305296e-01 3.177307684847354e-01 3.358845139311625e-01 3.269712117148754e-01 3.350936279297052e-01 3.500716017589048e-01 3.488569939781828e-01 3.588381992284846e-01 3.574034905805554e-01 3.613988806789062e-01
 3.631180762346873e-01 3.599430134728958e-01 3.616805155935834e-01 3.266276323790457e-01 3.262519688381537e-01 3.346409047966019e-01 3.341600713498080e-01 3.258419261863473e-01 3.336469435267498e-01 3.254406633301914e-01
 3.331268345245145e-01 3.475076711024280e-01 3.461179256414141e-01 3.558673453284557e-01 3.543465274425797e-01 3.584009817377866e-01 3.601694185670982e-01 3.568904445629801e-01 3.586990143214352e-01 3.677985623291631e-01
 3.679581460637468e-01 3.684352545075423e-01 3.685903905094848e-01 3.673237714965061e-01 3.679745916687210e-01 3.688193877179194e-01 3.689688591423388e-01 3.690609971232980e-01 3.692042235090062e-01 3.683762294310167e-01
 3.686368842527264e-01 3.692294431599674e-01 3.693662289358862e-01 3.688248185706516e-01 3.692999391346663e-01 3.694335071364951e-01 3.693661344703311e-01 3.694965101901344e-01 3.689050129255860e-01 3.689808094363700e-01
 3.694305013876368e-01 3.695577231762016e-01 3.690546456969353e-01 3.694625776330289e-01 3.695882400101849e-01 3.694948317971525e-01 3.696189476305409e-01 3.690913990052717e-01 3.691282887674363e-01 3.695274121575847e-01
 3.696499950866479e-01 3.695604432459631e-01 3.696815075623764e-01 3.691654613653672e-01 3.692030397880477e-01 3.696282714060453e-01 3.697463433009291e-01 3.692798233475262e-01 3.665489323367334e-01 3.672251707066791e-01
 3.655079222328744e-01 3.662213386174136e-01 3.676570647193461e-01 3.679499884316951e-01 3.666960443902990e-01 3.670338535129949e-01 3.681705418436675e-01 3.672992982935966e-01 3.682668668490967e-01 3.683585756728118e-01
 3.674176977681833e-01 3.675311121192220e-01 3.684480574699492e-01 3.676418750175212e-01 3.684925227807614e-01 3.685370464667919e-01 3.676968104797604e-01 3.677516859227263e-01 3.685817725277354e-01 3.686268220930591e-01
 3.678066430216522e-01 3.678618012330144e-01 3.687182952773329e-01 3.679731190281353e-01 3.697729885964450e-01 3.698852651306069e-01 3.699317606574958e-01 3.700385094936273e-01 3.694418733652796e-01 3.696171918077858e-01
 3.702958511911367e-01 3.703923807471884e-01 3.700120296036649e-01 3.707202884131934e-01 3.708078145530410e-01 3.712018746805064e-01 3.712819276251505e-01 3.704643035771464e-01 3.709712202163445e-01 3.689086923015718e-01
 3.682017020094405e-01 3.691109832337678e-01 3.684402203211390e-01 3.695557093981638e-01 3.689517192293504e-01 3.700528304182632e-01 3.705998558346279e-01 3.695088891737328e-01 3.701102728011317e-01 3.642563824377870e-01
 3.650168516999352e-01 3.628614415738825e-01 3.636777838713777e-01 3.655448352814399e-01 3.659379803989220e-01 3.642676263780487e-01 3.647241818512508e-01 3.662584121148925e-01 3.651070512806868e-01 3.664037468880110e-01
 3.665435844054158e-01 3.652828106299474e-01 3.654523996325045e-01 3.666801967922109e-01 3.656180331159431e-01 3.667478302468836e-01 3.668152472039183e-01 3.656998943251427e-01 3.657813456292465e-01 3.668825870586780e-01
 3.669499677462477e-01 3.658625250135780e-01 3.659435497990562e-01 3.670852440906371e-01 3.661055244413162e-01 3.614030730061997e-01 3.622832528743449e-01 3.599896344350889e-01 3.609345984721833e-01 3.629411808853042e-01
 3.634659981962760e-01 3.616594870491792e-01 3.622502038781266e-01 3.639150830423388e-01 3.627624542733141e-01 3.641228487160614e-01 3.643235885602576e-01 3.630005760183292e-01 3.632307652563270e-01 3.645194827974393e-01
 3.634551926615663e-01 3.646161397239555e-01 3.647121607420263e-01 3.635657793291603e-01 3.636755046162184e-01 3.648076845910466e-01 3.649028300138423e-01 3.637845098698272e-01 3.638929169005148e-01 3.650923757771640e-01
 3.641083317915227e-01 3.673597923080753e-01 3.676417550516767e-01 3.664311239807105e-01 3.667611631346906e-01 3.682328358654720e-01 3.674398765254399e-01 3.688608774914106e-01 3.695252500251385e-01 3.681457297551126e-01
 3.688794654903149e-01 3.654704903659396e-01 3.645356491218251e-01 3.658497936995153e-01 3.649610831859023e-01 3.666178657794539e-01 3.658128562933988e-01 3.674027939847231e-01 3.682068252600147e-01 3.666721175157451e-01
 3.675426216602378e-01 4.571057425349994e-01 4.582719352070027e-01 4.535655725260068e-01 4.475114133201534e-01 4.386473915046650e-01 4.239420185997050e-01 4.784605764365013e-01 4.795214634842141e-01 4.752570388454194e-01
 4.698440827855005e-01 4.620844236670507e-01 5.089416837474718e-01 5.128829076320138e-01 4.933549512941546e-01 4.882418864552483e-01 4.809834670309321e-01 5.039865915537838e-01 4.969881620890811e-01 5.342031693002827e-01
 5.380419296851389e-01 5.226266310837946e-01 5.525891850532432e-01 5.563883379282861e-01 5.411562018080571e-01 4.174325975786435e-01 4.096441303620982e-01 4.329936180771853e-01 4.263737138432476e-01 4.002557900841620e-01
 4.186061462749473e-01 3.888212093077377e-01 4.094162843496363e-01 4.517181303417947e-01 4.382392846493901e-01 3.821853600510621e-01 3.749042154443652e-01 3.983935831075883e-01 3.670635290447543e-01 3.589131680725757e-01
 3.920254812895074e-01 3.849926463794604e-01 4.300393778744583e-01 4.159905150522446e-01 4.050649790766206e-01 4.205868966168130e-01 3.508712273950806e-01 3.433896113221703e-01 3.772659313699766e-01 3.689195177298317e-01
 3.367723936856595e-01 3.311144479828401e-01 3.602244014843181e-01 3.516629939220657e-01 3.919112762232824e-01 4.095311116553623e-01 3.843083108508736e-01 3.759851186540298e-01 3.963428458631415e-01 4.714418976789915e-01
 4.593623428646044e-01 4.442501332888898e-01 4.352676174001062e-01 4.250583890514990e-01 4.121888908231194e-01 4.878640953972432e-01 4.764660284166690e-01 4.625185616626839e-01 4.454756137659721e-01 5.030604806724424e-01
 5.219451038519625e-01 4.747030777529373e-01 4.945083035197297e-01 5.701620405805971e-01 5.739367933504264e-01 5.706584645299058e-01 5.744324448774167e-01 5.588112092151496e-01 5.593085855641096e-01 5.397982395904228e-01
 5.128629239352546e-01 5.070229812372712e-01 5.402986126867662e-01 5.133711559927504e-01 5.133753336242105e-01 3.263644222832792e-01 3.224113750626729e-01 3.437675792435789e-01 3.368830484525496e-01 3.164274850818623e-01
 3.310931447784202e-01 3.263139992283166e-01 3.670765276119374e-01 3.579622767693838e-01 3.887441225473279e-01 3.803992194640842e-01 3.492317750068721e-01 3.414279907290941e-01 3.713736452508436e-01 3.619658213169015e-01
 3.192104651209389e-01 3.348102350538592e-01 3.293671594595169e-01 3.527511651161108e-01 3.443740058181337e-01 3.145127018358314e-01 3.249506157628690e-01 3.213879887776553e-01 3.372253216722688e-01 3.313598957343305e-01
 3.987391440947886e-01 4.132699137626200e-01 3.910169599751146e-01 3.825406511012378e-01 3.993648059967624e-01 3.733538648413804e-01 3.637314334922880e-01 3.826809148667197e-01 3.542514554405393e-01 3.456063691283382e-01
 3.732570319259390e-01 3.634417520762795e-01 4.241523290277605e-01 4.111217145000174e-01 3.983568607999194e-01 3.900480418076979e-01 3.809795149039679e-01 3.957714520623489e-01 3.114788477721377e-01 3.266350088290552e-01
 3.228632045481608e-01 3.096356634217693e-01 3.174853189995931e-01 3.083812440955589e-01 3.141659464283732e-01 3.122534959769420e-01 3.382420689948107e-01 3.322343985045458e-01 3.538599597972985e-01 3.452232854333678e-01
 3.274354600782351e-01 3.236353973544695e-01 3.379516109017106e-01 3.320802616631142e-01 3.712641896848944e-01 3.613088440094646e-01 3.870175329480624e-01 3.775284276208325e-01 3.518184277223335e-01 3.434749406118152e-01
 3.675327140181676e-01 3.575915193986148e-01 3.274310337587800e-01 3.237850643016781e-01 3.365874894749349e-01 3.310997912454465e-01 3.484691599138941e-01 3.407204567467395e-01 3.187318586453654e-01 3.234574100145688e-01
 3.344725061248178e-01 3.295654531929872e-01 4.565093657618368e-01 4.422639232976739e-01 4.309715353336254e-01 4.181646253348376e-01 4.345749282698408e-01 4.773217646153681e-01 4.572923547305066e-01 4.472831393019582e-01
 4.033218907317086e-01 3.915970944202752e-01 3.823178650204922e-01 3.724056964469672e-01 3.857896717830981e-01 4.216165538857559e-01 4.067431528898133e-01 3.971529106913212e-01 3.622772015011790e-01 3.526604795215352e-01
 3.759696630435826e-01 3.657811906451274e-01 3.442594585514698e-01 3.373837361437329e-01 3.558817937813129e-01 3.470390610538558e-01 3.783210096694292e-01 3.893181912062796e-01 3.681133295268200e-01 3.580658309110998e-01
 3.795539849842032e-01 3.693261992344642e-01 4.219688239517618e-01 4.066781062068123e-01 3.888585466552175e-01 3.797419882976928e-01 4.334194043964072e-01 4.193946618536613e-01 4.033443803887715e-01 4.902275722318876e-01
 4.962056268549513e-01 4.709066963646973e-01 4.771307774116764e-01 4.484254026588932e-01 4.213278713776594e-01 4.138572381751610e-01 4.551201284124554e-01 4.290054402300416e-01 4.262858152186397e-01 4.967277705048321e-01
 4.967225995771024e-01 4.776704458399277e-01 4.776636407386221e-01 4.556934052430671e-01 4.556838121452140e-01 4.296486312909635e-01 4.296339009362158e-01 3.111597521954944e-01 3.157707329666923e-01 3.142102725931002e-01
 3.228281593733191e-01 3.189028698131345e-01 3.123043927361474e-01 3.167833354723542e-01 3.158734494927757e-01 3.319618378083824e-01 3.277587735491715e-01 3.397016921728762e-01 3.338861660303614e-01 3.489635256665428e-01
 3.413389105745945e-01 3.592133250241553e-01 3.500021898255581e-01 3.259335644079663e-01 3.352767352662550e-01 3.305824788858066e-01 3.422596405208926e-01 3.360990123300751e-01 3.694819854886032e-01 3.593638410551576e-01
 3.789409492677588e-01 3.686407498774711e-01 3.501755182010959e-01 3.424755910828160e-01 3.585803545755303e-01 3.495437488470532e-01 3.847140356577584e-01 3.771881737210440e-01 3.668635853366771e-01 3.569466891787347e-01
 3.745175650223763e-01 3.642219864558264e-01 3.213515564002961e-01 3.277153916084248e-01 3.363690363707085e-01 3.316633950451911e-01 3.420401343610633e-01 3.361257394386244e-01 3.482000520958128e-01 3.410397163869481e-01
 3.545726754944555e-01 3.462675907040655e-01 3.188848457790216e-01 3.229523511844178e-01 3.281680940361962e-01 3.354478358727218e-01 3.311840597421681e-01 3.395869912574622e-01 3.344230223452906e-01 3.966784783082420e-01
 3.911863746282130e-01 3.812843141228243e-01 3.871044510439048e-01 3.709714277397524e-01 3.769615111198265e-01 4.051087228210806e-01 3.864164617313993e-01 3.821091285292366e-01 3.608170698839598e-01 3.516020907656144e-01
 3.666252621029221e-01 3.567957269285109e-01 3.438951233308027e-01 3.378083286554876e-01 3.482129292565112e-01 3.412461882587984e-01 3.717911272557929e-01 3.762137157125962e-01 3.616170865497864e-01 3.658918127328908e-01
 3.523620867602495e-01 3.446083530994639e-01 3.561712329228272e-01 3.477654180855120e-01 4.106397317967577e-01 4.136495350236777e-01 3.926785384209010e-01 3.960818664339322e-01 3.724325310046742e-01 3.695131544784360e-01
 3.595007469681224e-01 3.505916284392742e-01 3.622511294689230e-01 3.529789143942358e-01 3.761128859126518e-01 3.658002287252509e-01 3.561339795007912e-01 4.143549381733257e-01 3.968731257331410e-01 4.143360444418022e-01
 3.968482008131061e-01 3.769712068833326e-01 3.769381517725972e-01 3.666351309373046e-01 3.568816260574493e-01 3.665979806208970e-01 3.568412298196733e-01 3.134006332135049e-01 3.158019160142877e-01 3.177975229916251e-01
 3.204363665784570e-01 3.237349799236583e-01 3.275948684558809e-01 3.358435488730249e-01 3.317544325663478e-01 3.384870769369611e-01 3.338118622827693e-01 3.409925947679482e-01 3.357671027248401e-01 3.432628653692979e-01
 3.375422311688837e-01 3.452053950763018e-01 3.390708884242542e-01 3.478130900995537e-01 3.411331591428453e-01 3.484293681706384e-01 3.483868315076126e-01 3.416124780560891e-01 3.415685328172648e-01 3.147379876197398e-01
 3.163258973871524e-01 3.176426810376638e-01 3.193632200050754e-01 3.214771902401472e-01 3.239022426761173e-01 3.264672887271637e-01 3.289067325171336e-01 3.308991631476739e-01 3.321374483308246e-01 3.324038125216168e-01
 3.323575458802346e-01 3.179160944052558e-01 3.185390168117528e-01 3.197924895697406e-01 3.216284530909905e-01 3.235721140693935e-01 3.247646020736893e-01 3.248225638320348e-01 3.247697224848035e-01 5.706572500834679e-01
 5.744324448774167e-01 5.706566797228682e-01 5.744324448774167e-01 5.593062916749846e-01 5.593051479950917e-01 5.706562950136923e-01 5.744324448774167e-01 5.593043497899374e-01 5.402952570555231e-01 5.402934779080724e-01
 5.402921799038597e-01 5.133661783999808e-01 5.133635197818820e-01 5.133614854385075e-01 4.967164318714656e-01 4.967131333726710e-01 4.776557329481729e-01 4.776515049373708e-01 4.967105280046578e-01 4.776480237465557e-01
 4.556731243511377e-01 4.556673916777629e-01 4.556623981657817e-01 4.296182138543457e-01 4.296096420006406e-01 4.296015567680967e-01 4.143161713827702e-01 4.143050544838163e-01 3.968218709691378e-01 3.968065255804918e-01
 4.142939843872938e-01 3.967901209714682e-01 3.769019005363928e-01 3.768792970491388e-01 3.768527975793925e-01 3.665557904866130e-01 3.665283463800456e-01 3.567934602492126e-01 3.567610769890133e-01 3.664945403422181e-01
 3.567194025639497e-01 3.483345957553448e-01 3.482979587557678e-01 3.415129556405240e-01 3.414730086750449e-01 3.482492293591070e-01 3.414187094386439e-01 3.322970656360731e-01 3.322524227760424e-01 3.321905137021305e-01
 3.246995861168705e-01 3.246470886671221e-01 3.245743887952676e-01 3.252228706438307e-01 3.254455001720497e-01 3.326529224904933e-01 3.322934064817920e-01 3.257380084104690e-01 3.255935842044200e-01 3.320476548113995e-01
 3.318209143944968e-01 3.449052151220911e-01 3.440984931506252e-01 3.530290702194060e-01 3.520802067353439e-01 3.555793953645285e-01 3.574176447844123e-01 3.546054280394060e-01 3.564406171792824e-01 3.254940360909673e-01
 3.254181036755964e-01 3.253171942131763e-01 3.316731643630445e-01 3.315578463076432e-01 3.314113045284435e-01 3.436339760002177e-01 3.433663521897197e-01 3.514680096549776e-01 3.510815992143555e-01 3.539500800383519e-01
 3.557599221687432e-01 3.535221818904603e-01 3.553024332872431e-01 5.706561614124416e-01 5.744324448774167e-01 5.593040648079427e-01 5.706561030692188e-01 5.744324448774167e-01 5.593039374367330e-01 5.402916934156514e-01
 5.402914669125839e-01 5.133606630770690e-01 5.133602564306978e-01 4.967094207448923e-01 4.776464532586893e-01 4.967088531130115e-01 4.776456158938372e-01 4.556599840396583e-01 4.556586427009863e-01 4.295973227647011e-01
 4.295948655998587e-01 4.142879120886773e-01 3.967806174373038e-01 4.142843015148725e-01 3.967748047534292e-01 3.768364403581742e-01 3.768261072189609e-01 3.664730166920223e-01 3.566921791373200e-01 3.664592088321778e-01
 3.566744954029739e-01 3.482168120516297e-01 3.413821749027304e-01 3.481955720192954e-01 3.413581126203151e-01 3.321484658249297e-01 3.321206640404356e-01 3.245251957967418e-01 3.244927732126057e-01 5.706560757255245e-01
 5.744324448774167e-01 5.593038769484925e-01 5.706560674595891e-01 5.744324448774167e-01 5.593038585693815e-01 5.402913569136155e-01 5.402913232065962e-01 5.133600527712148e-01 5.133599896554525e-01 4.967085638822979e-01
 4.776451815064856e-01 4.967084736937066e-01 4.776450451963695e-01 4.556579341374007e-01 4.556577103616136e-01 4.295935424450771e-01 4.295931216126672e-01 4.142823353573231e-01 3.967715958579724e-01 4.142817072708039e-01
 3.967705650311587e-01 3.768203095612255e-01 3.768184343335909e-01 3.664514008214648e-01 3.566644322654796e-01 3.664488669251625e-01 3.566611577028854e-01 3.481834326288322e-01 3.413443249179803e-01 3.481794751592548e-01
 3.413398252277157e-01 3.321047050428065e-01 3.320994929425969e-01 3.244742016893876e-01 3.244681425769886e-01 3.252508549834006e-01 3.313170387696411e-01 3.252079107406027e-01 3.312569967638448e-01 3.431921577846353e-01
 3.430822681505472e-01 3.508291231405430e-01 3.506692594458666e-01 3.532397956825296e-01 3.549968142647502e-01 3.530601001230164e-01 3.548011098873515e-01 3.251835780413936e-01 3.251756789706036e-01 3.312233349394829e-01
 3.312124623858546e-01 3.430212267659210e-01 3.430016059677174e-01 3.505803633590185e-01 3.505517842046533e-01 3.529599301008525e-01 3.546916602538130e-01 3.529276936301173e-01 3.546563878469218e-01 3.587515310446738e-01
 3.597464852464378e-01 3.577863855496116e-01 3.588025691556160e-01 3.605236885245151e-01 3.611664508554348e-01 3.596063861055064e-01 3.602785313986757e-01 3.617290866627542e-01 3.608716881647878e-01 3.619915970463126e-01
 3.622455563258552e-01 3.611495651303948e-01 3.614188504566428e-01 3.624931197686461e-01 3.616816420712919e-01 3.626150396656279e-01 3.627359398181123e-01 3.618111261131772e-01 3.619395512591910e-01 3.628559628115517e-01
 3.629752320911921e-01 3.620670566561714e-01 3.621937628623919e-01 3.632119064214817e-01 3.624451644515931e-01 3.570939840225981e-01 3.581082964424402e-01 3.566168209679446e-01 3.576192338305677e-01 3.589170595776672e-01
 3.595987556555634e-01 3.584219945242438e-01 3.591020964579544e-01 3.602045223433345e-01 3.597095596317431e-01 3.604894826652945e-01 3.607662538218681e-01 3.599963091492492e-01 3.602754057706158e-01 3.610368549216867e-01
 3.605488005791893e-01 3.611703421095141e-01 3.613028280632701e-01 3.606838388848851e-01 3.608179718548456e-01 3.614344455848565e-01 3.615653094572134e-01 3.609513262337012e-01 3.610840111603266e-01 3.618251458835277e-01
 3.613477261739197e-01 3.636799279184955e-01 3.641438541247067e-01 3.629420046365611e-01 3.634338641611226e-01 3.650663740606048e-01 3.644094492378917e-01 3.659894886010226e-01 3.669180355255726e-01 3.653820388873016e-01
 3.663565655163901e-01 3.623392218861130e-01 3.618703919149792e-01 3.628485891680829e-01 3.623892069194348e-01 3.638594819842196e-01 3.634209652038815e-01 3.648669600090565e-01 3.658755111896682e-01 3.644506800973628e-01
 3.654818205460702e-01 3.562938963850203e-01 3.572839306170204e-01 3.560856419554938e-01 3.570660648541787e-01 3.580782777614931e-01 3.587531206348349e-01 3.578532283999052e-01 3.585228797326043e-01 3.593578399588384e-01
 3.591240528141261e-01 3.596439848792530e-01 3.599229324045894e-01 3.594089455421579e-01 3.596869567534400e-01 3.601965904883970e-01 3.599599702716687e-01 3.603319010665805e-01 3.604663955664510e-01 3.600950600016519e-01
 3.602293987153518e-01 3.606001966730928e-01 3.607334096955648e-01 3.603631067497019e-01 3.604962871769852e-01 3.609984142493152e-01 3.607614017373905e-01 3.559687302574877e-01 3.569432482260728e-01 3.559309896517988e-01
 3.569035271025187e-01 3.577258072508672e-01 3.583919363371740e-01 3.576845143380901e-01 3.583494134570147e-01 3.589904968962419e-01 3.589470331139137e-01 3.592743772516178e-01 3.595515563020448e-01 3.592305370205915e-01
 3.595073974306898e-01 3.598239059850181e-01 3.597794826042237e-01 3.599587229808467e-01 3.600928271501783e-01 3.599141864101698e-01 3.600481896969329e-01 3.602263376656948e-01 3.603593564875894e-01 3.601816112626628e-01
 3.603145527047751e-01 3.606242525074436e-01 3.605793276563699e-01 3.615245143781817e-01 3.620477183296185e-01 3.612883763240885e-01 3.618132096390395e-01 3.630906865224402e-01 3.628614184510541e-01 3.641339049049089e-01
 3.651803118805309e-01 3.639117713751114e-01 3.649665285765044e-01 3.611511857044544e-01 3.611061456160366e-01 3.616764450303323e-01 3.616314368459397e-01 3.627267677358121e-01 3.626822026030742e-01 3.637805422065374e-01
 3.648398050860323e-01 3.637367038793574e-01 3.647966113385074e-01 3.717368816804033e-01 3.718119534859528e-01 3.723212328191821e-01 3.723965963623456e-01 3.715298700496822e-01 3.721382380602529e-01 3.711938153057392e-01
 3.718314943223389e-01 3.707543767700075e-01 3.714407263792572e-01 3.702248372074745e-01 3.709584106785664e-01 3.696413317367103e-01 3.704318015652793e-01 3.690313859203088e-01 3.698777080004165e-01 3.684270020963282e-01
 3.693274380451370e-01 3.735067556225414e-01 3.737388143993670e-01 3.729478241474899e-01 3.721032928105458e-01 3.711820732034382e-01 3.764474347376459e-01 3.770105741520673e-01 3.751674187028122e-01 3.805846858021301e-01
 3.809937803638782e-01 3.854763723861467e-01 3.857814104349415e-01 3.796408149012482e-01 3.847646484195965e-01 3.678556746083107e-01 3.688058210911312e-01 3.673366612758762e-01 3.683252594661632e-01 3.668887213256802e-01
 3.679102309064320e-01 3.665168273509074e-01 3.675573397088922e-01 3.662323996368579e-01 3.672931194817743e-01 3.660273407845527e-01 3.670955708402432e-01 3.659062978865140e-01 3.669823730619400e-01 3.658628649259092e-01
 3.669357737530728e-01 3.703334476222810e-01 3.696535778219092e-01 3.692545927255166e-01 3.690959390472914e-01 3.740098553174617e-01 3.735681853729675e-01 3.787632659099371e-01 3.840898074151995e-01 3.784200654533117e-01
 3.838214417786711e-01 3.913228630893033e-01 3.915571508401889e-01 3.984771045292671e-01 3.986637273846037e-01 3.907716677302822e-01 3.980354076106747e-01 4.075918335394322e-01 4.077479281956073e-01 4.200312719463932e-01
 4.201718462582011e-01 4.072208582048129e-01 4.196963778322399e-01 3.902417268656183e-01 3.976065962457655e-01 3.900285700750680e-01 3.974327711973654e-01 4.068583347583171e-01 4.193678621528179e-01 4.067106186439410e-01
 4.192335964779307e-01 4.393704998163704e-01 4.395160620163097e-01 4.800588958798245e-01 4.802801698665589e-01 4.390237268888627e-01 4.795347378728894e-01 6.480473004002653e-01 6.489413847397969e-01 6.459551510348966e-01
 3.433509091907984e+00 3.436604535998311e+00 3.426014570470350e+00 4.386834631418208e-01 4.790243359822808e-01 4.385443334785498e-01 4.788167020459901e-01 6.439521273481681e-01 6.431467610896408e-01 3.418493960535574e+00
 3.415370347966491e+00 5.706560757077878e-01 5.744324448774167e-01 5.593038769087395e-01 5.706561030319564e-01 5.744324448774167e-01 5.593039373531071e-01 5.402913568398096e-01 5.402914667570009e-01 5.133600526312444e-01
 5.133602561348912e-01 4.967085636817665e-01 4.776451812050361e-01 4.967088526886831e-01 4.776456152551809e-01 4.556579336552825e-01 4.556586416783074e-01 4.295935416136282e-01 4.295948638333746e-01 4.142823342397337e-01
 3.967715943604407e-01 4.142842991371540e-01 3.967748015585876e-01 3.768203077162056e-01 3.768261032560824e-01 3.664513989464690e-01 3.566644305037518e-01 3.664592047774621e-01 3.566744915542172e-01 3.481834310517563e-01
 3.413443234909970e-01 3.481955685292989e-01 3.413581094227089e-01 3.321047036484001e-01 3.321206608814012e-01 3.244741994310051e-01 3.244927682026410e-01 5.706561613531236e-01 5.744324448774167e-01 5.593040646741850e-01