DF-ISE text

Info {
  version = 1.0
  type    = dataset
  dimension   = 2
  nb_vertices = 1377
  nb_edges    = 3808
  nb_faces    = 0
  nb_elements = 2448
  nb_regions  = 3
  datasets    = [ "ElectrostaticPotential" "eDensity" "hDensity" "LatticeTemperature" "EffectiveIntrinsicDensity" "IntrinsicDensity" "eEquilibriumDensity" "hEquilibriumDensity" "BandGap" "EffectiveBandGap" "BandgapNarrowing" "ValenceBandEnergy" "ConductionBandEnergy" "hEffectiveStateDensity" "eEffectiveStateDensity" "eQuasiFermiEnergy" "hQuasiFermiEnergy" "ElectronAffinity" "TotalCurrentDensity" "eCurrentDensity" "hCurrentDensity" "eMobility" "hMobility" "eVelocity" "hVelocity" "ElectricField" "eQuasiFermiPotential" "hQuasiFermiPotential" "SpaceCharge" "eGradQuasiFermi" "hGradQuasiFermi" "eEparallel" "hEparallel" "eEnormal" "hEnormal" "srhRecombination" "Band2BandGeneration" "AugerRecombination" "RadiativeRecombination" "ImpactIonization" "eImpactIonization" "hImpactIonization" "eAlphaAvalanche" "hAlphaAvalanche" "TotalRecombination" "eLifetime" "hLifetime" "SurfaceRecombination" "DopingConcentration" "DonorConcentration" "AcceptorConcentration" "DonorPlusConcentration" "AccepMinusConcentration" "QuasiFermiPotential" ]
  functions   = [ ElectrostaticPotential eDensity hDensity LatticeTemperature EffectiveIntrinsicDensity IntrinsicDensity eEquilibriumDensity hEquilibriumDensity BandGap EffectiveBandGap BandgapNarrowing ValenceBandEnergy ConductionBandEnergy hEffectiveStateDensity eEffectiveStateDensity eQuasiFermiEnergy hQuasiFermiEnergy ElectronAffinity TotalCurrentDensity eCurrentDensity hCurrentDensity eMobility hMobility eVelocity hVelocity ElectricField eQuasiFermiPotential hQuasiFermiPotential SpaceCharge eGradQuasiFermi hGradQuasiFermi eEparallel hEparallel eEnormal hEnormal srhRecombination Band2BandGeneration AugerRecombination RadiativeRecombination ImpactIonization eImpactIonization hImpactIonization eAlphaAvalanche hAlphaAvalanche TotalRecombination eLifetime hLifetime SurfaceRecombination DopingConcentration DonorConcentration AcceptorConcentration DonorPlusConcentration AccepMinusConcentration QuasiFermiPotential ]
}

Data {

  Dataset ("ElectrostaticPotential") {
    function  = ElectrostaticPotential
    type      = scalar
    dimension = 1
    location  = vertex
    validity  = [ "N-" ]
    Values (1377) {
 1.853289001506181e+01 1.961024638543926e+01 1.853289001506181e+01 1.802615023078043e+01 1.802615023078043e+01 1.853289001506181e+01 1.961024638543926e+01 1.802615023078043e+01 1.768431535781391e+01 1.768431535781391e+01
 1.740729649449474e+01 1.740729649449474e+01 1.768431535781391e+01 1.740729649449474e+01 1.853289001506181e+01 1.961024638543926e+01 1.802615023078043e+01 1.853289001506181e+01 1.961024638543926e+01 1.802615023078043e+01
 1.768431535781391e+01 1.740729649449474e+01 1.768431535781391e+01 1.740729649449474e+01 1.715601484836818e+01 1.715601484836818e+01 1.715601484836818e+01 1.691412918407317e+01 1.691412918407317e+01 1.691412918407317e+01
 1.679522071443056e+01 1.679522071443056e+01 1.667814021263296e+01 1.667814021263296e+01 1.679522071443056e+01 1.667814021263296e+01 1.656250765402376e+01 1.656250765402376e+01 1.644806839316171e+01 1.644806839316171e+01
 1.656250765402376e+01 1.644806839316171e+01 1.715601484836818e+01 1.715601484836818e+01 1.691412918407317e+01 1.691412918407317e+01 1.679522071443056e+01 1.667814021263296e+01 1.679522071443056e+01 1.667814021263296e+01
 1.656250765402376e+01 1.644806839316171e+01 1.656250765402376e+01 1.644806839316171e+01 1.633467447025677e+01 1.633467447025677e+01 1.622224763830637e+01 1.622224763830637e+01 1.633467447025677e+01 1.622224763830637e+01
 1.611074951371725e+01 1.611074951371725e+01 1.611074951371725e+01 1.605539210854941e+01 1.605539210854941e+01 1.600036057338793e+01 1.600036057338793e+01 1.605539210854941e+01 1.600036057338793e+01 1.594565232145275e+01
 1.594565232145275e+01 1.594565232145275e+01 1.591842425043308e+01 1.591842425043308e+01 1.589128740314986e+01 1.589128740314986e+01 1.591842425043308e+01 1.589128740314986e+01 1.586424138217046e+01 1.586424138217046e+01
 1.583728579624009e+01 1.583728579624009e+01 1.586424138217046e+01 1.583728579624009e+01 1.581042025631470e+01 1.581042025631470e+01 1.578364436905832e+01 1.578364436905832e+01 1.581042025631470e+01 1.578364436905832e+01
 1.573033895268272e+01 1.573033895268272e+01 1.573033895268272e+01 1.567734559565550e+01 1.567734559565550e+01 1.567734559565550e+01 1.557210692188237e+01 1.557210692188237e+01 1.557210692188237e+01 1.633467447025677e+01
 1.622224763830637e+01 1.633467447025677e+01 1.622224763830637e+01 1.611074951371725e+01 1.611074951371725e+01 1.605539210854941e+01 1.600036057338793e+01 1.605539210854941e+01 1.600036057338793e+01 1.594565232145275e+01
 1.594565232145275e+01 1.591842425043308e+01 1.589128740314986e+01 1.591842425043308e+01 1.589128740314986e+01 1.586424138217046e+01 1.583728579624009e+01 1.586424138217046e+01 1.583728579624009e+01 1.581042025631470e+01
 1.578364436905832e+01 1.581042025631470e+01 1.578364436905832e+01 1.573033895268272e+01 1.573033895268272e+01 1.567734559565550e+01 1.567734559565550e+01 1.557210692188237e+01 1.557210692188237e+01 1.536345100809686e+01
 1.536345100809686e+01 1.515668389620139e+01 1.515668389620139e+01 1.536345100809686e+01 1.515668389620139e+01 1.495178886216981e+01 1.495178886216981e+01 1.474874856289317e+01 1.474874856289317e+01 1.495178886216981e+01
 1.474874856289317e+01 1.536345100809686e+01 1.536345100809686e+01 1.515668389620139e+01 1.515668389620139e+01 1.495178886216981e+01 1.474874856289317e+01 1.495178886216981e+01 1.474874856289317e+01 1.454754571417251e+01
 1.454754571417251e+01 1.434816316578824e+01 1.434816316578824e+01 1.454754571417251e+01 1.434816316578824e+01 1.415058390677926e+01 1.415058390677926e+01 1.395479106444904e+01 1.395479106444904e+01 1.415058390677926e+01
 1.395479106444904e+01 1.454754571417251e+01 1.434816316578824e+01 1.454754571417251e+01 1.434816316578824e+01 1.415058390677926e+01 1.395479106444904e+01 1.415058390677926e+01 1.395479106444904e+01 1.376076790293685e+01
 1.376076790293685e+01 1.356849782178349e+01 1.356849782178349e+01 1.376076790293685e+01 1.356849782178349e+01 1.337796435451740e+01 1.337796435451740e+01 1.318915116726274e+01 1.318915116726274e+01 1.337796435451740e+01
 1.318915116726274e+01 1.376076790293685e+01 1.356849782178349e+01 1.376076790293685e+01 1.356849782178349e+01 1.337796435451740e+01 1.318915116726274e+01 1.337796435451740e+01 1.318915116726274e+01 1.300204205736958e+01
 1.300204205736958e+01 1.281662095206668e+01 1.281662095206668e+01 1.300204205736958e+01 1.281662095206668e+01 1.263287190713699e+01 1.263287190713699e+01 1.245077910561620e+01 1.245077910561620e+01 1.263287190713699e+01
 1.245077910561620e+01 1.300204205736958e+01 1.281662095206668e+01 1.300204205736958e+01 1.281662095206668e+01 1.263287190713699e+01 1.245077910561620e+01 1.263287190713699e+01 1.245077910561620e+01 1.227032685651455e+01
 1.227032685651455e+01 1.209149959356216e+01 1.209149959356216e+01 1.227032685651455e+01 1.209149959356216e+01 1.191428187397799e+01 1.191428187397799e+01 1.173865837726282e+01 1.173865837726282e+01 1.191428187397799e+01
 1.173865837726282e+01 1.227032685651455e+01 1.209149959356216e+01 1.227032685651455e+01 1.209149959356216e+01 1.191428187397799e+01 1.173865837726282e+01 1.191428187397799e+01 1.173865837726282e+01 1.156461390401617e+01
 1.156461390401617e+01 1.139213337477750e+01 1.139213337477750e+01 1.156461390401617e+01 1.139213337477750e+01 1.122120182889182e+01 1.122120182889182e+01 1.105180442339967e+01 1.105180442339967e+01 1.122120182889182e+01
 1.105180442339967e+01 1.156461390401617e+01 1.139213337477750e+01 1.156461390401617e+01 1.139213337477750e+01 1.122120182889182e+01 1.105180442339967e+01 1.122120182889182e+01 1.105180442339967e+01 1.088392643195176e+01
 1.088392643195176e+01 1.071755324374818e+01 1.071755324374818e+01 1.088392643195176e+01 1.071755324374818e+01 1.055267036250230e+01 1.055267036250230e+01 1.038926340542939e+01 1.038926340542939e+01 1.055267036250230e+01
 1.038926340542939e+01 1.088392643195176e+01 1.071755324374818e+01 1.088392643195176e+01 1.071755324374818e+01 1.055267036250230e+01 1.038926340542939e+01 1.055267036250230e+01 1.038926340542939e+01 1.022731810225994e+01
 1.022731810225994e+01 1.006682029427756e+01 1.006682029427756e+01 1.022731810225994e+01 1.006682029427756e+01 9.907755933381614e+00 9.907755933381614e+00 9.750111081174254e+00 9.750111081174254e+00 9.907755933381614e+00
 9.750111081174254e+00 1.022731810225994e+01 1.006682029427756e+01 1.022731810225994e+01 1.006682029427756e+01 9.907755933381614e+00 9.750111081174254e+00 9.907755933381614e+00 9.750111081174254e+00 9.593871908071945e+00
 9.593871908071945e+00 9.439024692441222e+00 9.439024692441222e+00 9.593871908071945e+00 9.439024692441222e+00 9.285555819758569e+00 9.285555819758569e+00 9.133451781794200e+00 9.133451781794200e+00 9.285555819758569e+00
 9.133451781794200e+00 9.593871908071945e+00 9.439024692441222e+00 9.593871908071945e+00 9.439024692441222e+00 9.285555819758569e+00 9.133451781794200e+00 9.285555819758569e+00 9.133451781794200e+00 8.982699175819526e+00
 8.982699175819526e+00 8.833284703838080e+00 8.833284703838080e+00 8.982699175819526e+00 8.833284703838080e+00 8.685195171839565e+00 8.685195171839565e+00 8.538417489076801e+00 8.538417489076801e+00 8.685195171839565e+00
 8.538417489076801e+00 8.982699175819526e+00 8.833284703838080e+00 8.982699175819526e+00 8.833284703838080e+00 8.685195171839565e+00 8.538417489076801e+00 8.685195171839565e+00 8.538417489076801e+00 8.392938667365135e+00
 8.392938667365135e+00 8.248745820404070e+00 8.248745820404070e+00 8.392938667365135e+00 8.248745820404068e+00 8.105826163120604e+00 8.105826163120604e+00 7.964167011033964e+00 7.964167011033964e+00 8.105826163120604e+00
 7.964167011033964e+00 8.392938667365135e+00 8.248745820404068e+00 8.392938667365135e+00 8.248745820404068e+00 8.105826163120604e+00 7.964167011033964e+00 8.105826163120604e+00 7.964167011033964e+00 7.823755779641234e+00
 7.823755779641234e+00 7.684579983823435e+00 7.684579983823435e+00 7.823755779641234e+00 7.684579983823435e+00 7.546627237271567e+00 7.546627237271567e+00 7.409885251932076e+00 7.409885251932076e+00 7.546627237271567e+00
 7.409885251932076e+00 7.823755779641234e+00 7.684579983823435e+00 7.823755779641234e+00 7.684579983823435e+00 7.546627237271567e+00 7.409885251932076e+00 7.546627237271567e+00 7.409885251932076e+00 7.274341837471258e+00
 7.274341837471258e+00 7.139984900757989e+00 7.139984900757987e+00 7.274341837471258e+00 7.139984900757989e+00 7.006802445364229e+00 7.006802445364229e+00 6.874782571082715e+00 6.874782571082715e+00 7.006802445364229e+00
 6.874782571082715e+00 7.274341837471258e+00 7.139984900757989e+00 7.274341837471258e+00 7.139984900757989e+00 7.006802445364229e+00 6.874782571082715e+00 7.006802445364229e+00 6.874782571082715e+00 1.853289001506181e+01
 1.961024638543926e+01 1.802615023078043e+01 1.853289001506181e+01 1.961024638543926e+01 1.802615023078043e+01 1.768431535781391e+01 1.740729649449474e+01 1.768431535781391e+01 1.740729649449474e+01 1.715601484836818e+01
 1.715601484836818e+01 1.691412918407317e+01 1.691412918407317e+01 1.679522071443056e+01 1.667814021263296e+01 1.679522071443056e+01 1.667814021263296e+01 1.656250765402376e+01 1.644806839316171e+01 1.656250765402376e+01
 1.644806839316171e+01 1.633467447025677e+01 1.622224763830637e+01 1.633467447025677e+01 1.622224763830637e+01 1.611074951371725e+01 1.611074951371725e+01 1.605539210854941e+01 1.600036057338793e+01 1.605539210854941e+01
 1.600036057338793e+01 1.594565232145275e+01 1.594565232145275e+01 1.591842425043308e+01 1.589128740314986e+01 1.591842425043308e+01 1.589128740314986e+01 1.586424138217046e+01 1.583728579624009e+01 1.586424138217046e+01
 1.583728579624009e+01 1.581042025631470e+01 1.578364436905832e+01 1.581042025631470e+01 1.578364436905832e+01 1.573033895268272e+01 1.573033895268272e+01 1.567734559565550e+01 1.567734559565550e+01 1.557210692188237e+01
 1.557210692188237e+01 1.536345100809686e+01 1.536345100809686e+01 1.515668389620139e+01 1.515668389620139e+01 1.495178886216981e+01 1.474874856289317e+01 1.495178886216981e+01 1.474874856289317e+01 1.454754571417251e+01
 1.434816316578824e+01 1.454754571417251e+01 1.434816316578824e+01 1.415058390677926e+01 1.395479106444904e+01 1.415058390677926e+01 1.395479106444904e+01 1.376076790293685e+01 1.356849782178349e+01 1.376076790293685e+01
 1.356849782178349e+01 1.337796435451740e+01 1.318915116726274e+01 1.337796435451740e+01 1.318915116726274e+01 1.300204205736958e+01 1.281662095206668e+01 1.300204205736958e+01 1.281662095206668e+01 1.263287190713699e+01
 1.245077910561620e+01 1.263287190713699e+01 1.245077910561620e+01 1.227032685651455e+01 1.209149959356216e+01 1.227032685651455e+01 1.209149959356216e+01 1.191428187397799e+01 1.173865837726282e+01 1.191428187397799e+01
 1.173865837726282e+01 1.156461390401617e+01 1.139213337477750e+01 1.156461390401617e+01 1.139213337477750e+01 1.122120182889182e+01 1.105180442339967e+01 1.122120182889182e+01 1.105180442339967e+01 1.088392643195176e+01
 1.071755324374818e+01 1.088392643195176e+01 1.071755324374818e+01 1.055267036250230e+01 1.038926340542939e+01 1.055267036250230e+01 1.038926340542939e+01 1.022731810225994e+01 1.006682029427756e+01 1.022731810225994e+01
 1.006682029427756e+01 9.907755933381614e+00 9.750111081174254e+00 9.907755933381614e+00 9.750111081174254e+00 9.593871908071945e+00 9.439024692441222e+00 9.593871908071945e+00 9.439024692441222e+00 9.285555819758569e+00
 9.133451781794200e+00 9.285555819758569e+00 9.133451781794200e+00 8.982699175819526e+00 8.833284703838080e+00 8.982699175819526e+00 8.833284703838080e+00 8.685195171839565e+00 8.538417489076801e+00 8.685195171839565e+00
 8.538417489076801e+00 8.392938667365135e+00 8.248745820404070e+00 8.392938667365135e+00 8.248745820404070e+00 8.105826163120604e+00 7.964167011033964e+00 8.105826163120604e+00 7.964167011033964e+00 7.823755779641234e+00
 7.684579983823435e+00 7.823755779641234e+00 7.684579983823435e+00 7.546627237271567e+00 7.409885251932076e+00 7.546627237271567e+00 7.409885251932076e+00 7.274341837471258e+00 7.139984900757989e+00 7.274341837471258e+00
 7.139984900757989e+00 7.006802445364229e+00 6.874782571082715e+00 7.006802445364229e+00 6.874782571082715e+00 1.853289001506181e+01 1.961024638543926e+01 1.802615023078043e+01 1.853289001506181e+01 1.802615023078043e+01
 1.768431535781391e+01 1.740729649449474e+01 1.768431535781391e+01 1.740729649449474e+01 1.715601484836818e+01 1.715601484836818e+01 1.691412918407317e+01 1.691412918407317e+01 1.679522071443056e+01 1.667814021263296e+01
 1.679522071443056e+01 1.667814021263296e+01 1.656250765402376e+01 1.644806839316171e+01 1.656250765402376e+01 1.644806839316171e+01 1.633467447025677e+01 1.622224763830637e+01 1.633467447025677e+01 1.622224763830637e+01
 1.611074951371725e+01 1.611074951371725e+01 1.605539210854941e+01 1.600036057338793e+01 1.605539210854941e+01 1.600036057338793e+01 1.594565232145275e+01 1.591842425043308e+01 1.589128740314986e+01 1.586424138217046e+01
 1.583728579624009e+01 1.581042025631470e+01 1.578364436905832e+01 1.573033895268272e+01 1.567734559565550e+01 1.557210692188237e+01 1.594565232145275e+01 1.591842425043308e+01 1.589128740314986e+01 1.586424138217046e+01
 1.583728579624009e+01 1.581042025631470e+01 1.578364436905832e+01 1.573033895268272e+01 1.567734559565550e+01 1.557210692188237e+01 1.536345100809686e+01 1.515668389620139e+01 1.536345100809686e+01 1.515668389620139e+01
 1.495178886216981e+01 1.474874856289317e+01 1.495178886216981e+01 1.474874856289317e+01 1.454754571417251e+01 1.434816316578824e+01 1.454754571417251e+01 1.434816316578824e+01 1.415058390677926e+01 1.395479106444904e+01
 1.415058390677926e+01 1.395479106444904e+01 1.376076790293685e+01 1.356849782178349e+01 1.376076790293685e+01 1.356849782178349e+01 1.337796435451740e+01 1.318915116726274e+01 1.337796435451740e+01 1.318915116726274e+01
 1.300204205736958e+01 1.281662095206668e+01 1.300204205736958e+01 1.281662095206668e+01 1.263287190713699e+01 1.245077910561620e+01 1.263287190713699e+01 1.245077910561620e+01 1.227032685651455e+01 1.209149959356216e+01
 1.227032685651455e+01 1.209149959356215e+01 1.191428187397799e+01 1.173865837726282e+01 1.191428187397799e+01 1.173865837726282e+01 1.156461390401617e+01 1.139213337477750e+01 1.156461390401617e+01 1.139213337477750e+01
 1.122120182889182e+01 1.105180442339967e+01 1.122120182889182e+01 1.105180442339967e+01 1.088392643195176e+01 1.071755324374818e+01 1.088392643195176e+01 1.071755324374818e+01 1.055267036250230e+01 1.038926340542939e+01
 1.055267036250230e+01 1.038926340542939e+01 1.022731810225994e+01 1.006682029427756e+01 1.022731810225994e+01 1.006682029427756e+01 9.907755933381614e+00 9.750111081174254e+00 9.907755933381614e+00 9.750111081174254e+00
 9.593871908071945e+00 9.439024692441222e+00 9.593871908071945e+00 9.439024692441222e+00 9.285555819758569e+00 9.133451781794200e+00 9.285555819758569e+00 9.133451781794200e+00 8.982699175819526e+00 8.833284703838080e+00
 8.982699175819526e+00 8.833284703838080e+00 8.685195171839565e+00 8.538417489076801e+00 8.685195171839565e+00 8.538417489076801e+00 8.392938667365135e+00 8.248745820404070e+00 8.392938667365135e+00 8.248745820404070e+00
 8.105826163120604e+00 7.964167011033964e+00 8.105826163120604e+00 7.964167011033964e+00 7.823755779641234e+00 7.684579983823435e+00 7.823755779641234e+00 7.684579983823435e+00 7.546627237271567e+00 7.409885251932076e+00
 7.546627237271567e+00 7.409885251932076e+00 7.274341837471258e+00 7.139984900757989e+00 7.274341837471258e+00 7.139984900757989e+00 7.006802445364229e+00 6.874782571082715e+00 7.006802445364229e+00 6.874782571082715e+00
 6.743913473461189e+00 6.743913473461189e+00 6.614183443352563e+00 6.614183443352563e+00 6.743913473461189e+00 6.614183443352563e+00 6.485580866480357e+00 6.485580866480357e+00 6.358094223018750e+00 6.358094223018750e+00
 6.485580866480357e+00 6.358094223018750e+00 6.743913473461189e+00 6.614183443352563e+00 6.743913473461189e+00 6.614183443352563e+00 6.485580866480357e+00 6.358094223018750e+00 6.485580866480357e+00 6.358094223018750e+00
 6.231712087186563e+00 6.231712087186563e+00 6.106423126854490e+00 6.106423126854490e+00 6.231712087186563e+00 6.106423126854490e+00 5.982216103164896e+00 5.982216103164896e+00 5.859079870163441e+00 5.859079870163441e+00
 5.982216103164896e+00 5.859079870163441e+00 6.231712087186563e+00 6.106423126854490e+00 6.231712087186563e+00 6.106423126854490e+00 5.982216103164896e+00 5.859079870163441e+00 5.982216103164896e+00 5.859079870163441e+00
 5.737003374441850e+00 5.737003374441850e+00 5.615975654791098e+00 5.615975654791098e+00 5.737003374441850e+00 5.615975654791098e+00 5.495985841864295e+00 5.495985841864295e+00 5.377023157848536e+00 5.377023157848536e+00
 5.495985841864295e+00 5.377023157848536e+00 5.737003374441850e+00 5.615975654791098e+00 5.737003374441850e+00 5.615975654791098e+00 5.495985841864295e+00 5.377023157848536e+00 5.495985841864295e+00 5.377023157848536e+00
 5.259076916145006e+00 5.259076916145006e+00 5.142136521056615e+00 5.142136521056615e+00 5.259076916145006e+00 5.142136521056615e+00 5.026191467482429e+00 5.026191467482429e+00 4.911231340618207e+00 4.911231340618207e+00
 5.026191467482429e+00 4.911231340618207e+00 5.259076916145006e+00 5.142136521056615e+00 5.259076916145006e+00 5.142136521056615e+00 5.026191467482429e+00 4.911231340618207e+00 5.026191467482429e+00 4.911231340618208e+00
 4.797245815662319e+00 4.797245815662319e+00 4.684224657526333e+00 4.684224657526333e+00 4.797245815662319e+00 4.684224657526333e+00 4.572157720549603e+00 4.572157720549603e+00 4.461034948217154e+00 4.461034948217154e+00
 4.572157720549603e+00 4.461034948217154e+00 4.797245815662319e+00 4.684224657526333e+00 4.797245815662319e+00 4.684224657526333e+00 4.572157720549603e+00 4.461034948217154e+00 4.572157720549603e+00 4.461034948217154e+00
 4.350846372880204e+00 4.350846372880204e+00 4.241582115478656e+00 4.241582115478656e+00 4.350846372880204e+00 4.241582115478656e+00 4.133232385264929e+00 4.133232385264929e+00 4.025787479528470e+00 4.025787479528470e+00
 4.133232385264929e+00 4.025787479528470e+00 4.350846372880204e+00 4.241582115478656e+00 4.350846372880204e+00 4.241582115478656e+00 4.133232385264929e+00 4.025787479528470e+00 4.133232385264929e+00 4.025787479528470e+00
 3.919237783320389e+00 3.919237783320389e+00 3.813573769177554e+00 3.813573769177554e+00 3.919237783320389e+00 3.813573769177554e+00 3.708785996845623e+00 3.708785996845623e+00 3.604865113000442e+00 3.604865113000442e+00
 3.708785996845623e+00 3.604865113000442e+00 3.919237783320389e+00 3.813573769177554e+00 3.919237783320389e+00 3.813573769177554e+00 3.708785996845623e+00 3.604865113000442e+00 3.708785996845623e+00 3.604865113000442e+00
 3.501801850967254e+00 3.501801850967254e+00 3.399587030437242e+00 3.399587030437242e+00 3.501801850967254e+00 3.399587030437242e+00 3.298211557180873e+00 3.298211557180873e+00 3.197666422757609e+00 3.197666422757609e+00
 3.298211557180873e+00 3.197666422757609e+00 3.501801850967254e+00 3.399587030437242e+00 3.501801850967254e+00 3.399587030437242e+00 3.298211557180873e+00 3.197666422757609e+00 3.298211557180873e+00 3.197666422757609e+00
 6.743913473461189e+00 6.614183443352563e+00 6.743913473461189e+00 6.614183443352563e+00 6.485580866480357e+00 6.358094223018750e+00 6.485580866480357e+00 6.358094223018750e+00 6.231712087186563e+00 6.106423126854490e+00
 6.231712087186563e+00 6.106423126854490e+00 5.982216103164896e+00 5.859079870163441e+00 5.982216103164896e+00 5.859079870163441e+00 5.737003374441850e+00 5.615975654791098e+00 5.737003374441850e+00 5.615975654791098e+00
 5.495985841864295e+00 5.377023157848536e+00 5.495985841864295e+00 5.377023157848536e+00 5.259076916145006e+00 5.142136521056615e+00 5.259076916145006e+00 5.142136521056615e+00 5.026191467482429e+00 4.911231340618208e+00
 5.026191467482429e+00 4.911231340618208e+00 4.797245815662319e+00 4.684224657526333e+00 4.797245815662319e+00 4.684224657526333e+00 4.572157720549603e+00 4.461034948217154e+00 4.572157720549603e+00 4.461034948217154e+00
 4.350846372880204e+00 4.241582115478656e+00 4.350846372880204e+00 4.241582115478656e+00 4.133232385264929e+00 4.025787479528470e+00 4.133232385264929e+00 4.025787479528470e+00 3.919237783320389e+00 3.813573769177554e+00
 3.919237783320389e+00 3.813573769177554e+00 3.708785996845623e+00 3.604865113000442e+00 3.708785996845623e+00 3.604865113000442e+00 3.501801850967254e+00 3.399587030437242e+00 3.501801850967254e+00 3.399587030437242e+00
 3.298211557180873e+00 3.197666422757609e+00 3.298211557180873e+00 3.197666422757609e+00 6.743913473461189e+00 6.614183443352563e+00 6.743913473461189e+00 6.614183443352563e+00 6.485580866480357e+00 6.358094223018750e+00
 6.485580866480357e+00 6.358094223018750e+00 6.231712087186563e+00 6.106423126854490e+00 6.231712087186563e+00 6.106423126854490e+00 5.982216103164896e+00 5.859079870163441e+00 5.982216103164896e+00 5.859079870163441e+00
 5.737003374441850e+00 5.615975654791098e+00 5.737003374441850e+00 5.615975654791098e+00 5.495985841864295e+00 5.377023157848536e+00 5.495985841864295e+00 5.377023157848536e+00 5.259076916145006e+00 5.142136521056615e+00
 5.259076916145006e+00 5.142136521056615e+00 5.026191467482429e+00 4.911231340618208e+00 5.026191467482429e+00 4.911231340618208e+00 4.797245815662319e+00 4.684224657526333e+00 4.797245815662319e+00 4.684224657526333e+00
 4.572157720549603e+00 4.461034948217154e+00 4.572157720549603e+00 4.461034948217154e+00 4.350846372880204e+00 4.241582115478656e+00 4.350846372880204e+00 4.241582115478656e+00 4.133232385264929e+00 4.025787479528470e+00
 4.133232385264929e+00 4.025787479528470e+00 3.919237783320389e+00 3.813573769177554e+00 3.919237783320389e+00 3.813573769177554e+00 3.708785996845623e+00 3.604865113000442e+00 3.708785996845623e+00 3.604865113000442e+00
 3.501801850967254e+00 3.399587030437242e+00 3.501801850967254e+00 3.399587030437242e+00 3.298211557180873e+00 3.197666422757609e+00 3.298211557180873e+00 3.197666422757609e+00 3.097942704221516e+00 3.097942704221516e+00
 2.999031563822358e+00 2.999031563822358e+00 3.097942704221516e+00 2.999031563822358e+00 2.900924248701783e+00 2.900924248701783e+00 2.803612090584210e+00 2.803612090584210e+00 2.900924248701783e+00 2.803612090584210e+00
 3.097942704221516e+00 2.999031563822358e+00 3.097942704221516e+00 2.999031563822358e+00 2.900924248701783e+00 2.803612090584210e+00 2.900924248701783e+00 2.803612090584210e+00 2.707086505462084e+00 2.707086505462084e+00
 2.611338993275180e+00 2.611338993275180e+00 2.707086505462084e+00 2.611338993275180e+00 2.516361137583632e+00 2.516361137583632e+00 2.422144605234443e+00 2.422144605234443e+00 2.516361137583632e+00 2.422144605234443e+00
 2.707086505462084e+00 2.611338993275180e+00 2.707086505462084e+00 2.611338993275180e+00 2.516361137583632e+00 2.422144605234443e+00 2.516361137583632e+00 2.422144605234443e+00 2.328681146021200e+00 2.328681146021200e+00
 2.235962592336805e+00 2.235962592336805e+00 2.328681146021200e+00 2.235962592336805e+00 2.143980858818976e+00 2.143980858818976e+00 2.052727941988390e+00 2.052727941988390e+00 2.143980858818976e+00 2.052727941988390e+00
 2.328681146021201e+00 2.235962592336805e+00 2.328681146021201e+00 2.235962592336805e+00 2.143980858818976e+00 2.052727941988390e+00 2.143980858818976e+00 2.052727941988390e+00 1.962195919879285e+00 1.962195919879285e+00
 1.872376951662413e+00 1.872376951662413e+00 1.962195919879285e+00 1.872376951662413e+00 1.783263277260226e+00 1.783263277260226e+00 1.694847216954232e+00 1.694847216954232e+00 1.783263277260226e+00 1.694847216954232e+00
 1.962195919879285e+00 1.872376951662413e+00 1.962195919879285e+00 1.872376951662413e+00 1.783263277260226e+00 1.694847216954232e+00 1.783263277260226e+00 1.694847216954232e+00 3.097942704221516e+00 2.999031563822358e+00
 3.097942704221516e+00 2.999031563822358e+00 2.900924248701783e+00 2.803612090584210e+00 2.900924248701783e+00 2.803612090584210e+00 2.707086505462084e+00 2.611338993275180e+00 2.707086505462084e+00 2.611338993275180e+00
 2.516361137583632e+00 2.422144605234443e+00 2.516361137583632e+00 2.422144605234443e+00 2.328681146021201e+00 2.235962592336805e+00 2.328681146021201e+00 2.235962592336805e+00 2.143980858818976e+00 2.052727941988390e+00
 2.143980858818976e+00 2.052727941988390e+00 1.962195919879285e+00 1.872376951662413e+00 1.962195919879285e+00 1.872376951662413e+00 1.783263277260226e+00 1.694847216954232e+00 1.783263277260226e+00 1.694847216954232e+00
 3.097942704221516e+00 2.999031563822358e+00 3.097942704221516e+00 2.999031563822358e+00 2.900924248701783e+00 2.803612090584210e+00 2.900924248701783e+00 2.803612090584210e+00 2.707086505462084e+00 2.611338993275180e+00
 2.707086505462084e+00 2.611338993275180e+00 2.516361137583632e+00 2.422144605234443e+00 2.516361137583632e+00 2.422144605234443e+00 2.328681146021200e+00 2.235962592336805e+00 2.328681146021200e+00 2.235962592336805e+00
 2.143980858818976e+00 2.052727941988390e+00 2.143980858818976e+00 2.052727941988390e+00 1.962195919879285e+00 1.872376951662413e+00 1.962195919879285e+00 1.872376951662413e+00 1.783263277260226e+00 1.694847216954232e+00
 1.783263277260226e+00 1.694847216954232e+00 1.607121170984438e+00 1.607121170984438e+00 1.520077619140877e+00 1.520077619140877e+00 1.607121170984438e+00 1.520077619140877e+00 1.433709120347168e+00 1.433709120347168e+00
 1.348008312236138e+00 1.348008312236138e+00 1.433709120347168e+00 1.348008312236138e+00 1.607121170984438e+00 1.520077619140877e+00 1.607121170984438e+00 1.520077619140877e+00 1.433709120347168e+00 1.348008312236138e+00
 1.433709120347168e+00 1.348008312236138e+00 1.262967910717525e+00 1.262967910717525e+00 1.178580709537798e+00 1.178580709537798e+00 1.262967910717525e+00 1.178580709537798e+00 1.094839579832167e+00 1.094839579832167e+00
 1.011737469671217e+00 1.011737469671217e+00 1.094839579832167e+00 1.011737469671217e+00 1.262967910717525e+00 1.178580709537798e+00 1.262967910717525e+00 1.178580709537798e+00 1.094839579832167e+00 1.011737469671217e+00
 1.094839579832167e+00 1.011737469671217e+00 1.607121170984438e+00 1.520077619140877e+00 1.607121170984438e+00 1.520077619140877e+00 1.433709120347168e+00 1.348008312236138e+00 1.433709120347168e+00 1.348008312236138e+00
 1.262967910717525e+00 1.178580709537798e+00 1.262967910717525e+00 1.178580709537798e+00 1.094839579832167e+00 1.011737469671217e+00 1.094839579832167e+00 1.011737469671217e+00 1.607121170984438e+00 1.520077619140877e+00
 1.607121170984438e+00 1.520077619140877e+00 1.433709120347168e+00 1.348008312236138e+00 1.433709120347168e+00 1.348008312236138e+00 1.262967910717525e+00 1.178580709537798e+00 1.262967910717525e+00 1.178580709537798e+00
 1.094839579832167e+00 1.011737469671217e+00 1.094839579832167e+00 1.011737469671217e+00 9.292674052411446e-01 9.292674052411446e-01 9.292674052411446e-01 8.474229612244825e-01 8.474229612244825e-01 8.474229612244825e-01
 8.067577104615000e-01 8.067577104615000e-01 8.067577104615000e-01 7.865052163027983e-01 7.865052163027983e-01 7.663138776714208e-01 7.663138776714208e-01 7.865052163027983e-01 7.663138776714208e-01 7.461892675423476e-01
 7.461892675423476e-01 7.261393706627232e-01 7.261393706627232e-01 7.461892675423476e-01 7.261393706627232e-01 7.061775680932325e-01 7.061775680932325e-01 6.863303353399358e-01 6.863303353399358e-01 7.061775680932325e-01
 6.863303353399358e-01 9.292674052411446e-01 9.292674052411446e-01 8.474229612244825e-01 8.474229612244825e-01 8.067577104615000e-01 8.067577104615000e-01 7.865052163027983e-01 7.663138776714208e-01 7.865052163027983e-01
 7.663138776714208e-01 7.461892675423476e-01 7.261393706627232e-01 7.461892675423476e-01 7.261393706627232e-01 7.061775680932325e-01 6.863303353399358e-01 7.061775680932325e-01 6.863303353399358e-01 6.666614828181340e-01